 Entering Gaussian System, Link 0=/mit/gaussian_v03-D01/distrib/i386_rhel4/g03/g03.real
 Input=/afs/athena.mit.edu/user/d/t/dtw/Desktop/LearnToGaussianFiles/Naph3.com
 Output=/afs/athena.mit.edu/user/d/t/dtw/Desktop/LearnToGaussianFiles/Naph3.log
 Initial command:
 /mit/gaussian_v03-D01/distrib/amd64_ubuntu1204/g03/l1.exe /var/tmp/Gau-57695.inp -scrdir=/var/tmp/
 Entering Link 1 = /mit/gaussian_v03-D01/distrib/amd64_ubuntu1204/g03/l1.exe PID=     57697.
  
 Copyright (c) 1988,1990,1992,1993,1995,1998,2003,2004, Gaussian, Inc.
                  All Rights Reserved.
  
 This is the Gaussian(R) 03 program.  It is based on the
 the Gaussian(R) 98 system (copyright 1998, Gaussian, Inc.),
 the Gaussian(R) 94 system (copyright 1995, Gaussian, Inc.),
 the Gaussian 92(TM) system (copyright 1992, Gaussian, Inc.),
 the Gaussian 90(TM) system (copyright 1990, Gaussian, Inc.),
 the Gaussian 88(TM) system (copyright 1988, Gaussian, Inc.),
 the Gaussian 86(TM) system (copyright 1986, Carnegie Mellon
 University), and the Gaussian 82(TM) system (copyright 1983,
 Carnegie Mellon University). Gaussian is a federally registered
 trademark of Gaussian, Inc.
  
 This software contains proprietary and confidential information,
 including trade secrets, belonging to Gaussian, Inc.
  
 This software is provided under written license and may be
 used, copied, transmitted, or stored only in accord with that
 written license.
  
 The following legend is applicable only to US Government
 contracts under FAR:
  
                    RESTRICTED RIGHTS LEGEND
  
 Use, reproduction and disclosure by the US Government is
 subject to restrictions as set forth in subparagraphs (a)
 and (c) of the Commercial Computer Software - Restricted
 Rights clause in FAR 52.227-19.
  
 Gaussian, Inc.
 340 Quinnipiac St., Bldg. 40, Wallingford CT 06492
  
  
 ---------------------------------------------------------------
 Warning -- This program may not be used in any manner that
 competes with the business of Gaussian, Inc. or will provide
 assistance to any competitor of Gaussian, Inc.  The licensee
 of this program is prohibited from giving any competitor of
 Gaussian, Inc. access to this program.  By using this program,
 the user acknowledges that Gaussian, Inc. is engaged in the
 business of creating and licensing software in the field of
 computational chemistry and represents and warrants to the
 licensee that it is not a competitor of Gaussian, Inc. and that
 it will not use this program in any manner prohibited above.
 ---------------------------------------------------------------
  

 Cite this work as:
 Gaussian 03, Revision D.01,
 M. J. Frisch, G. W. Trucks, H. B. Schlegel, G. E. Scuseria, 
 M. A. Robb, J. R. Cheeseman, J. A. Montgomery, Jr., T. Vreven, 
 K. N. Kudin, J. C. Burant, J. M. Millam, S. S. Iyengar, J. Tomasi, 
 V. Barone, B. Mennucci, M. Cossi, G. Scalmani, N. Rega, 
 G. A. Petersson, H. Nakatsuji, M. Hada, M. Ehara, K. Toyota, 
 R. Fukuda, J. Hasegawa, M. Ishida, T. Nakajima, Y. Honda, O. Kitao, 
 H. Nakai, M. Klene, X. Li, J. E. Knox, H. P. Hratchian, J. B. Cross, 
 V. Bakken, C. Adamo, J. Jaramillo, R. Gomperts, R. E. Stratmann, 
 O. Yazyev, A. J. Austin, R. Cammi, C. Pomelli, J. W. Ochterski, 
 P. Y. Ayala, K. Morokuma, G. A. Voth, P. Salvador, J. J. Dannenberg, 
 V. G. Zakrzewski, S. Dapprich, A. D. Daniels, M. C. Strain, 
 O. Farkas, D. K. Malick, A. D. Rabuck, K. Raghavachari, 
 J. B. Foresman, J. V. Ortiz, Q. Cui, A. G. Baboul, S. Clifford, 
 J. Cioslowski, B. B. Stefanov, G. Liu, A. Liashenko, P. Piskorz, 
 I. Komaromi, R. L. Martin, D. J. Fox, T. Keith, M. A. Al-Laham, 
 C. Y. Peng, A. Nanayakkara, M. Challacombe, P. M. W. Gill, 
 B. Johnson, W. Chen, M. W. Wong, C. Gonzalez, and J. A. Pople, 
 Gaussian, Inc., Wallingford CT, 2004.
 
 ******************************************
 Gaussian 03:  IA32L-G03RevD.01 13-Oct-2005
                31-Aug-2014 
 ******************************************
 %chk=Naph3.chk
 ----------------------------------------------------------------
 # freq b3lyp/6-31g(d) scrf=check guess=read genchk geom=allcheck
 ----------------------------------------------------------------
 1/10=4,29=7,30=1,38=1,40=1,46=1/1,3;
 2/40=1/2;
 3/5=1,6=6,7=1,11=2,16=1,25=1,30=1,70=2,71=2,74=-5/1,2,3;
 4/5=1/1;
 5/5=2,38=6/2;
 8/6=4,10=90,11=11/1;
 11/6=1,8=1,9=11,15=111,16=1/1,2,10;
 10/6=1/2;
 6/7=2,8=2,9=2,10=2,18=1,28=1/1;
 7/8=1,10=1,25=1/1,2,3,16;
 1/10=4,30=1,46=1/3;
 99//99;
 -------------------
 Title Card Required
 -------------------
 Redundant internal coordinates taken from checkpoint file:
 Naph3.chk
 Charge =  0 Multiplicity = 1
 C,0,-5.3992690653,-1.2767416142,0.0003295549
 C,0,-4.0409283408,-1.2744148473,0.0001634584
 C,0,-3.3161521595,-0.0528541403,0.0002375746
 C,0,-4.0283017784,1.1633498883,0.0005152465
 C,0,-5.4482787034,1.1290492416,0.0006974118
 C,0,-6.1150096149,-0.0544052688,0.0006002376
 H,0,-1.3543420982,-0.9483637822,-0.0001526243
 H,0,-5.9392321483,-2.2067608406,0.0002603137
 H,0,-3.4951970176,-2.2019302582,-0.0000457008
 C,0,-1.896142431,-0.0185459195,0.00005259
 C,0,-3.3034966273,2.3849317462,0.0006053954
 H,0,-5.9901010729,2.0588537609,0.0009050874
 H,0,-7.1902981686,-0.0701999967,0.0007371342
 C,0,-1.9451803842,2.3872529838,0.0004316043
 C,0,-1.2294235183,1.1648887548,0.0001418794
 H,0,-3.8492371298,3.3124411223,0.0008095211
 H,0,-1.4051993181,3.3172622831,0.0004976999
 H,0,-0.1541357235,1.1807063469,0.0000036159
 Recover connectivity data from disk.

 GradGradGradGradGradGradGradGradGradGradGradGradGradGradGradGradGradGrad
 Berny optimization.
 Initialization pass.
                           ----------------------------
                           !    Initial Parameters    !
                           ! (Angstroms and Degrees)  !
 --------------------------                            --------------------------
 ! Name  Definition              Value          Derivative Info.                !
 --------------------------------------------------------------------------------
 ! R1    R(1,2)                  1.3583         calculate D2E/DX2 analytically  !
 ! R2    R(1,6)                  1.4165         calculate D2E/DX2 analytically  !
 ! R3    R(1,8)                  1.0754         calculate D2E/DX2 analytically  !
 ! R4    R(2,3)                  1.4204         calculate D2E/DX2 analytically  !
 ! R5    R(2,9)                  1.0762         calculate D2E/DX2 analytically  !
 ! R6    R(3,4)                  1.4094         calculate D2E/DX2 analytically  !
 ! R7    R(3,10)                 1.4204         calculate D2E/DX2 analytically  !
 ! R8    R(4,5)                  1.4204         calculate D2E/DX2 analytically  !
 ! R9    R(4,11)                 1.4204         calculate D2E/DX2 analytically  !
 ! R10   R(5,6)                  1.3583         calculate D2E/DX2 analytically  !
 ! R11   R(5,12)                 1.0762         calculate D2E/DX2 analytically  !
 ! R12   R(6,13)                 1.0754         calculate D2E/DX2 analytically  !
 ! R13   R(7,10)                 1.0762         calculate D2E/DX2 analytically  !
 ! R14   R(10,15)                1.3583         calculate D2E/DX2 analytically  !
 ! R15   R(11,14)                1.3583         calculate D2E/DX2 analytically  !
 ! R16   R(11,16)                1.0762         calculate D2E/DX2 analytically  !
 ! R17   R(14,15)                1.4165         calculate D2E/DX2 analytically  !
 ! R18   R(14,17)                1.0754         calculate D2E/DX2 analytically  !
 ! R19   R(15,18)                1.0754         calculate D2E/DX2 analytically  !
 ! A1    A(2,1,6)              120.253          calculate D2E/DX2 analytically  !
 ! A2    A(2,1,8)              120.2373         calculate D2E/DX2 analytically  !
 ! A3    A(6,1,8)              119.5097         calculate D2E/DX2 analytically  !
 ! A4    A(1,2,3)              120.7796         calculate D2E/DX2 analytically  !
 ! A5    A(1,2,9)              120.3736         calculate D2E/DX2 analytically  !
 ! A6    A(3,2,9)              118.8468         calculate D2E/DX2 analytically  !
 ! A7    A(2,3,4)              118.9674         calculate D2E/DX2 analytically  !
 ! A8    A(2,3,10)             122.0655         calculate D2E/DX2 analytically  !
 ! A9    A(4,3,10)             118.9671         calculate D2E/DX2 analytically  !
 ! A10   A(3,4,5)              118.9674         calculate D2E/DX2 analytically  !
 ! A11   A(3,4,11)             118.9668         calculate D2E/DX2 analytically  !
 ! A12   A(5,4,11)             122.0658         calculate D2E/DX2 analytically  !
 ! A13   A(4,5,6)              120.7797         calculate D2E/DX2 analytically  !
 ! A14   A(4,5,12)             118.8468         calculate D2E/DX2 analytically  !
 ! A15   A(6,5,12)             120.3736         calculate D2E/DX2 analytically  !
 ! A16   A(1,6,5)              120.2529         calculate D2E/DX2 analytically  !
 ! A17   A(1,6,13)             119.5096         calculate D2E/DX2 analytically  !
 ! A18   A(5,6,13)             120.2375         calculate D2E/DX2 analytically  !
 ! A19   A(3,10,7)             118.8451         calculate D2E/DX2 analytically  !
 ! A20   A(3,10,15)            120.7799         calculate D2E/DX2 analytically  !
 ! A21   A(7,10,15)            120.375          calculate D2E/DX2 analytically  !
 ! A22   A(4,11,14)            120.78           calculate D2E/DX2 analytically  !
 ! A23   A(4,11,16)            118.8457         calculate D2E/DX2 analytically  !
 ! A24   A(14,11,16)           120.3744         calculate D2E/DX2 analytically  !
 ! A25   A(11,14,15)           120.2532         calculate D2E/DX2 analytically  !
 ! A26   A(11,14,17)           120.2382         calculate D2E/DX2 analytically  !
 ! A27   A(15,14,17)           119.5086         calculate D2E/DX2 analytically  !
 ! A28   A(10,15,14)           120.253          calculate D2E/DX2 analytically  !
 ! A29   A(10,15,18)           120.2386         calculate D2E/DX2 analytically  !
 ! A30   A(14,15,18)           119.5084         calculate D2E/DX2 analytically  !
 ! D1    D(6,1,2,3)             -0.0009         calculate D2E/DX2 analytically  !
 ! D2    D(6,1,2,9)           -179.9998         calculate D2E/DX2 analytically  !
 ! D3    D(8,1,2,3)            179.9993         calculate D2E/DX2 analytically  !
 ! D4    D(8,1,2,9)              0.0004         calculate D2E/DX2 analytically  !
 ! D5    D(2,1,6,5)             -0.0001         calculate D2E/DX2 analytically  !
 ! D6    D(2,1,6,13)          -179.9995         calculate D2E/DX2 analytically  !
 ! D7    D(8,1,6,5)            179.9997         calculate D2E/DX2 analytically  !
 ! D8    D(8,1,6,13)             0.0002         calculate D2E/DX2 analytically  !
 ! D9    D(1,2,3,4)              0.0013         calculate D2E/DX2 analytically  !
 ! D10   D(1,2,3,10)          -179.9993         calculate D2E/DX2 analytically  !
 ! D11   D(9,2,3,4)           -179.9998         calculate D2E/DX2 analytically  !
 ! D12   D(9,2,3,10)            -0.0004         calculate D2E/DX2 analytically  !
 ! D13   D(2,3,4,5)             -0.0007         calculate D2E/DX2 analytically  !
 ! D14   D(2,3,4,11)           179.9993         calculate D2E/DX2 analytically  !
 ! D15   D(10,3,4,5)           179.9999         calculate D2E/DX2 analytically  !
 ! D16   D(10,3,4,11)           -0.0002         calculate D2E/DX2 analytically  !
 ! D17   D(2,3,10,7)             0.0002         calculate D2E/DX2 analytically  !
 ! D18   D(2,3,10,15)         -179.9994         calculate D2E/DX2 analytically  !
 ! D19   D(4,3,10,7)           179.9996         calculate D2E/DX2 analytically  !
 ! D20   D(4,3,10,15)            0.0001         calculate D2E/DX2 analytically  !
 ! D21   D(3,4,5,6)             -0.0003         calculate D2E/DX2 analytically  !
 ! D22   D(3,4,5,12)          -179.9997         calculate D2E/DX2 analytically  !
 ! D23   D(11,4,5,6)           179.9997         calculate D2E/DX2 analytically  !
 ! D24   D(11,4,5,12)            0.0003         calculate D2E/DX2 analytically  !
 ! D25   D(3,4,11,14)           -0.0002         calculate D2E/DX2 analytically  !
 ! D26   D(3,4,11,16)          179.9995         calculate D2E/DX2 analytically  !
 ! D27   D(5,4,11,14)          179.9997         calculate D2E/DX2 analytically  !
 ! D28   D(5,4,11,16)           -0.0005         calculate D2E/DX2 analytically  !
 ! D29   D(4,5,6,1)              0.0007         calculate D2E/DX2 analytically  !
 ! D30   D(4,5,6,13)          -179.9998         calculate D2E/DX2 analytically  !
 ! D31   D(12,5,6,1)          -179.9999         calculate D2E/DX2 analytically  !
 ! D32   D(12,5,6,13)           -0.0004         calculate D2E/DX2 analytically  !
 ! D33   D(3,10,15,14)           0.0004         calculate D2E/DX2 analytically  !
 ! D34   D(3,10,15,18)         179.9998         calculate D2E/DX2 analytically  !
 ! D35   D(7,10,15,14)        -179.9991         calculate D2E/DX2 analytically  !
 ! D36   D(7,10,15,18)           0.0003         calculate D2E/DX2 analytically  !
 ! D37   D(4,11,14,15)           0.0007         calculate D2E/DX2 analytically  !
 ! D38   D(4,11,14,17)         179.9998         calculate D2E/DX2 analytically  !
 ! D39   D(16,11,14,15)       -179.999          calculate D2E/DX2 analytically  !
 ! D40   D(16,11,14,17)          0.0            calculate D2E/DX2 analytically  !
 ! D41   D(11,14,15,10)         -0.0008         calculate D2E/DX2 analytically  !
 ! D42   D(11,14,15,18)        179.9998         calculate D2E/DX2 analytically  !
 ! D43   D(17,14,15,10)       -179.9999         calculate D2E/DX2 analytically  !
 ! D44   D(17,14,15,18)          0.0008         calculate D2E/DX2 analytically  !
 --------------------------------------------------------------------------------
 Trust Radius=3.00D-01 FncErr=1.00D-07 GrdErr=1.00D-07
 Number of steps in this run=   2 maximum allowed number of steps=   2.
 GradGradGradGradGradGradGradGradGradGradGradGradGradGradGradGradGradGrad

                          Input orientation:                          
 ---------------------------------------------------------------------
 Center     Atomic     Atomic              Coordinates (Angstroms)
 Number     Number      Type              X           Y           Z
 ---------------------------------------------------------------------
    1          6             0       -5.399269   -1.276742    0.000330
    2          6             0       -4.040928   -1.274415    0.000163
    3          6             0       -3.316152   -0.052854    0.000238
    4          6             0       -4.028302    1.163350    0.000515
    5          6             0       -5.448279    1.129049    0.000697
    6          6             0       -6.115010   -0.054405    0.000600
    7          1             0       -1.354342   -0.948364   -0.000153
    8          1             0       -5.939232   -2.206761    0.000260
    9          1             0       -3.495197   -2.201930   -0.000046
   10          6             0       -1.896142   -0.018546    0.000053
   11          6             0       -3.303497    2.384932    0.000605
   12          1             0       -5.990101    2.058854    0.000905
   13          1             0       -7.190298   -0.070200    0.000737
   14          6             0       -1.945180    2.387253    0.000432
   15          6             0       -1.229424    1.164889    0.000142
   16          1             0       -3.849237    3.312441    0.000810
   17          1             0       -1.405199    3.317262    0.000498
   18          1             0       -0.154136    1.180706    0.000004
 ---------------------------------------------------------------------
                    Distance matrix (angstroms):
                    1          2          3          4          5
     1  C    0.000000
     2  C    1.358343   0.000000
     3  C    2.416046   1.420391   0.000000
     4  C    2.798857   2.437797   1.409365   0.000000
     5  C    2.406290   2.785188   2.437798   1.420391   0.000000
     6  C    1.416471   2.406291   2.798858   2.416046   1.358343
     7  H    4.058234   2.706299   2.156533   3.407256   4.590856
     8  H    1.075405   2.114906   3.394092   3.874184   3.371745
     9  H    2.116947   1.076154   2.156522   3.407244   3.861341
    10  C    3.722224   2.485420   1.420424   2.437823   3.732914
    11  C    4.219018   3.732911   2.437819   1.420424   2.485424
    12  H    3.387518   3.861341   3.407244   2.156521   1.076154
    13  H    2.159520   3.371745   3.874185   3.394093   2.114907
    14  C    5.035433   4.219001   2.798872   2.416057   3.722200
    15  C    4.832098   3.722198   2.416058   2.798879   4.219007
    16  H    4.843882   4.590860   3.407256   2.156538   2.706314
    17  H    6.087484   5.294390   3.874200   3.394113   4.597256
    18  H    5.792277   4.597258   3.394115   3.874205   5.294395
                    6          7          8          9         10
     6  C    0.000000
     7  H    4.843874   0.000000
     8  H    2.159521   4.754448   0.000000
     9  H    3.387519   2.480865   2.444040   0.000000
    10  C    4.219020   1.076155   4.597266   2.706315   0.000000
    11  C    3.722227   3.861355   5.294407   4.590866   2.785202
    12  H    2.116947   5.525723   4.265918   4.937492   4.590870
    13  H    1.075405   5.901657   2.475896   4.265917   5.294408
    14  C    4.832098   3.387540   6.087480   4.843878   2.406299
    15  C    5.035437   2.116941   5.792264   4.058226   1.358319
    16  H    4.058248   4.937506   5.901667   5.525725   3.861354
    17  H    5.792275   4.265929   7.146488   5.901659   3.371742
    18  H    6.087489   2.444061   6.703900   4.754463   2.114898
                   11         12         13         14         15
    11  C    0.000000
    12  H    2.706320   0.000000
    13  H    4.597271   2.444042   0.000000
    14  C    1.358318   4.058230   5.792265   0.000000
    15  C    2.406301   4.843885   6.087485   1.416504   0.000000
    16  H    1.076154   2.480883   4.754466   2.116933   3.387537
    17  H    2.114893   4.754463   6.703900   1.075405   2.159539
    18  H    3.371740   5.901664   7.146492   2.159536   1.075404
                   16         17         18
    16  H    0.000000
    17  H    2.444043   0.000000
    18  H    4.265919   2.475890   0.000000
 Stoichiometry    C10H8
 Framework group  C1[X(C10H8)]
 Deg. of freedom    48
 Full point group                 C1
 Largest Abelian subgroup         C1      NOp   1
 Largest concise Abelian subgroup C1      NOp   1
                         Standard orientation:                         
 ---------------------------------------------------------------------
 Center     Atomic     Atomic              Coordinates (Angstroms)
 Number     Number      Type              X           Y           Z
 ---------------------------------------------------------------------
    1          6             0       -2.416051    0.708237    0.000001
    2          6             0       -1.242701    1.392594   -0.000011
    3          6             0       -0.000008    0.704681    0.000002
    4          6             0       -0.000010   -0.704684    0.000000
    5          6             0       -1.242705   -1.392594   -0.000001
    6          6             0       -2.416054   -0.708234    0.000006
    7          1             0        1.240429    2.468753    0.000001
    8          1             0       -3.351945    1.237951    0.000002
    9          1             0       -1.240435    2.468746   -0.000012
   10          6             0        1.242719    1.392601    0.000006
   11          6             0        1.242718   -1.392601   -0.000003
   12          1             0       -1.240441   -2.468746    0.000001
   13          1             0       -3.351950   -1.237944    0.000008
   14          6             0        2.416044   -0.708251   -0.000007
   15          6             0        2.416047    0.708252    0.000006
   16          1             0        1.240442   -2.468752    0.000003
   17          1             0        3.351949   -1.237948   -0.000005
   18          1             0        3.351954    1.237942    0.000006
 ---------------------------------------------------------------------
 Rotational constants (GHZ):      3.1619680      1.2453441      0.8934557
 Standard basis: 6-31G(d) (6D, 7F)
 There are   166 symmetry adapted basis functions of A   symmetry.
 Integral buffers will be    262144 words long.
 Raffenetti 2 integral format.
 Two-electron integral symmetry is turned on.
   166 basis functions,   312 primitive gaussians,   166 cartesian basis functions
    34 alpha electrons       34 beta electrons
       nuclear repulsion energy       460.3758292510 Hartrees.
 NAtoms=   18 NActive=   18 NUniq=   18 SFac= 7.50D-01 NAtFMM=   80 NAOKFM=F Big=F
 One-electron integrals computed using PRISM.
 NBasis=   166 RedAO= T  NBF=   166
 NBsUse=   166 1.00D-06 NBFU=   166
 Initial guess read from the checkpoint file:
 Naph3.chk
 Initial guess orbital symmetries:
       Occupied  (A) (A) (A) (A) (A) (A) (A) (A) (A) (A) (A) (A)
                 (A) (A) (A) (A) (A) (A) (A) (A) (A) (A) (A) (A)
                 (A) (A) (A) (A) (A) (A) (A) (A) (A) (A)
       Virtual   (A) (A) (A) (A) (A) (A) (A) (A) (A) (A) (A) (A)
                 (A) (A) (A) (A) (A) (A) (A) (A) (A) (A) (A) (A)
                 (A) (A) (A) (A) (A) (A) (A) (A) (A) (A) (A) (A)
                 (A) (A) (A) (A) (A) (A) (A) (A) (A) (A) (A) (A)
                 (A) (A) (A) (A) (A) (A) (A) (A) (A) (A) (A) (A)
                 (A) (A) (A) (A) (A) (A) (A) (A) (A) (A) (A) (A)
                 (A) (A) (A) (A) (A) (A) (A) (A) (A) (A) (A) (A)
                 (A) (A) (A) (A) (A) (A) (A) (A) (A) (A) (A) (A)
                 (A) (A) (A) (A) (A) (A) (A) (A) (A) (A) (A) (A)
                 (A) (A) (A) (A) (A) (A) (A) (A) (A) (A) (A) (A)
                 (A) (A) (A) (A) (A) (A) (A) (A) (A) (A) (A) (A)
 Requested convergence on RMS density matrix=1.00D-08 within 128 cycles.
 Requested convergence on MAX density matrix=1.00D-06.
 Requested convergence on             energy=1.00D-06.
 No special actions if energy rises.
 SCF Done:  E(RB+HF-LYP) =  -385.890453831     A.U. after   10 cycles
             Convg  =    0.7402D-08             -V/T =  2.0089
             S**2   =   0.0000
 Range of M.O.s used for correlation:     1   166
 NBasis=   166 NAE=    34 NBE=    34 NFC=     0 NFV=     0
 NROrb=    166 NOA=    34 NOB=    34 NVA=   132 NVB=   132

 **** Warning!!: The largest alpha MO coefficient is  0.12639517D+02

 Symmetrizing basis deriv contribution to polar:
 IMax=3 JMax=2 DiffMx= 0.00D+00
 G2DrvN: will do   19 centers at a time, making    1 passes doing MaxLOS=2.
 FoFDir/FoFCou used for L=0 through L=2.
 DoAtom=TTTTTTTTTTTTTTTTTT
          Differentiating once with respect to electric field.
                with respect to dipole field.
          Differentiating once with respect to nuclear coordinates.
 Integrals replicated using symmetry in FoFDir.
 MinBra= 0 MaxBra= 2 Meth= 1.
 IRaf=       0 NMat=  57 IRICut=      57 DoRegI=T DoRafI=T ISym2E= 2 JSym2E=2.
          There are  57 degrees of freedom in the 1st order CPHF.
    54 vectors were produced by pass  0.
 AX will form  54 AO Fock derivatives at one time.
    54 vectors were produced by pass  1.
    54 vectors were produced by pass  2.
    54 vectors were produced by pass  3.
    54 vectors were produced by pass  4.
    41 vectors were produced by pass  5.
     5 vectors were produced by pass  6.
     2 vectors were produced by pass  7.
 Inv2:  IOpt= 1 Iter= 1 AM= 2.99D-15 Conv= 1.00D-12.
 Inverted reduced A of dimension  318 with in-core refinement.
 Isotropic polarizability for W=    0.000000       96.52 Bohr**3.
 End of Minotr Frequency-dependent properties file   721 does not exist.

 **********************************************************************

            Population analysis using the SCF density.

 **********************************************************************

 Orbital symmetries:
       Occupied  (A) (A) (A) (A) (A) (A) (A) (A) (A) (A) (A) (A)
                 (A) (A) (A) (A) (A) (A) (A) (A) (A) (A) (A) (A)
                 (A) (A) (A) (A) (A) (A) (A) (A) (A) (A)
       Virtual   (A) (A) (A) (A) (A) (A) (A) (A) (A) (A) (A) (A)
                 (A) (A) (A) (A) (A) (A) (A) (A) (A) (A) (A) (A)
                 (A) (A) (A) (A) (A) (A) (A) (A) (A) (A) (A) (A)
                 (A) (A) (A) (A) (A) (A) (A) (A) (A) (A) (A) (A)
                 (A) (A) (A) (A) (A) (A) (A) (A) (A) (A) (A) (A)
                 (A) (A) (A) (A) (A) (A) (A) (A) (A) (A) (A) (A)
                 (A) (A) (A) (A) (A) (A) (A) (A) (A) (A) (A) (A)
                 (A) (A) (A) (A) (A) (A) (A) (A) (A) (A) (A) (A)
                 (A) (A) (A) (A) (A) (A) (A) (A) (A) (A) (A) (A)
                 (A) (A) (A) (A) (A) (A) (A) (A) (A) (A) (A) (A)
                 (A) (A) (A) (A) (A) (A) (A) (A) (A) (A) (A) (A)
 The electronic state is 1-A.
 Alpha  occ. eigenvalues --  -10.19162 -10.19112 -10.18513 -10.18513 -10.18480
 Alpha  occ. eigenvalues --  -10.18479 -10.18418 -10.18417 -10.18406 -10.18405
 Alpha  occ. eigenvalues --   -0.87315  -0.82039  -0.77084  -0.73840  -0.71926
 Alpha  occ. eigenvalues --   -0.62200  -0.60941  -0.59610  -0.51517  -0.50818
 Alpha  occ. eigenvalues --   -0.49210  -0.44677  -0.43869  -0.41672  -0.41310
 Alpha  occ. eigenvalues --   -0.40045  -0.38842  -0.36561  -0.33494  -0.32820
 Alpha  occ. eigenvalues --   -0.32540  -0.28131  -0.24069  -0.21499
 Alpha virt. eigenvalues --   -0.03078  -0.00291   0.03705   0.09799   0.10796
 Alpha virt. eigenvalues --    0.11658   0.12515   0.16993   0.17050   0.17932
 Alpha virt. eigenvalues --    0.18620   0.21004   0.21131   0.25007   0.29399
 Alpha virt. eigenvalues --    0.31404   0.31717   0.32776   0.33672   0.36251
 Alpha virt. eigenvalues --    0.46899   0.50526   0.51330   0.53105   0.53381
 Alpha virt. eigenvalues --    0.54302   0.54758   0.56318   0.57005   0.58976
 Alpha virt. eigenvalues --    0.59238   0.61058   0.61349   0.61568   0.62171
 Alpha virt. eigenvalues --    0.62507   0.62579   0.63491   0.64727   0.67548
 Alpha virt. eigenvalues --    0.69296   0.69364   0.76054   0.83568   0.83689
 Alpha virt. eigenvalues --    0.83804   0.84307   0.84343   0.86092   0.86224
 Alpha virt. eigenvalues --    0.90498   0.90665   0.93548   0.94805   0.95253
 Alpha virt. eigenvalues --    0.99241   1.00454   1.05700   1.05953   1.07160
 Alpha virt. eigenvalues --    1.09759   1.16035   1.20430   1.20648   1.24521
 Alpha virt. eigenvalues --    1.25509   1.28513   1.31918   1.39465   1.41401
 Alpha virt. eigenvalues --    1.45585   1.45595   1.47006   1.49134   1.49858
 Alpha virt. eigenvalues --    1.49992   1.50374   1.51244   1.54287   1.73262
 Alpha virt. eigenvalues --    1.76994   1.78904   1.85873   1.90925   1.91687
 Alpha virt. eigenvalues --    1.92823   1.95062   1.95839   1.96045   1.97254
 Alpha virt. eigenvalues --    2.00086   2.04443   2.06536   2.12964   2.16946
 Alpha virt. eigenvalues --    2.18744   2.20135   2.21668   2.22307   2.29118
 Alpha virt. eigenvalues --    2.29715   2.30118   2.33724   2.34592   2.39343
 Alpha virt. eigenvalues --    2.43708   2.62252   2.62407   2.63400   2.64150
 Alpha virt. eigenvalues --    2.66380   2.69770   2.72211   2.76352   2.80021
 Alpha virt. eigenvalues --    2.84909   2.86951   2.89862   2.95246   3.11121
 Alpha virt. eigenvalues --    3.38229   3.51648   4.09655   4.10406   4.12285
 Alpha virt. eigenvalues --    4.12296   4.15767   4.26346   4.35534   4.40632
 Alpha virt. eigenvalues --    4.52458   4.81709
          Condensed to atoms (all electrons):
              1          2          3          4          5          6
     1  C    4.897359   0.525228  -0.001212  -0.041563  -0.018903   0.493310
     2  C    0.525228   5.100814   0.441068  -0.031549  -0.073023  -0.018903
     3  C   -0.001212   0.441068   4.700340   0.501125  -0.031548  -0.041563
     4  C   -0.041563  -0.031549   0.501125   4.700340   0.441068  -0.001212
     5  C   -0.018903  -0.073023  -0.031548   0.441068   5.100815   0.525228
     6  C    0.493310  -0.018903  -0.041563  -0.001212   0.525228   4.897359
     7  H    0.000220  -0.009267  -0.042320   0.005095  -0.000193   0.000013
     8  H    0.357756  -0.038381   0.003026   0.001118   0.004544  -0.042707
     9  H   -0.048495   0.355152  -0.042319   0.005095   0.000566   0.004926
    10  C    0.008854  -0.093364   0.441051  -0.031545   0.015605  -0.000612
    11  C   -0.000612   0.015605  -0.031545   0.441050  -0.093365   0.008854
    12  H    0.004926   0.000566   0.005095  -0.042319   0.355152  -0.048495
    13  H   -0.042707   0.004544   0.001118   0.003026  -0.038381   0.357756
    14  C    0.000058  -0.000612  -0.041562  -0.001212   0.008855  -0.000401
    15  C   -0.000401   0.008855  -0.001212  -0.041562  -0.000612   0.000058
    16  H    0.000013  -0.000193   0.005095  -0.042320  -0.009266   0.000220
    17  H   -0.000001   0.000012   0.001118   0.003026  -0.000212   0.000004
    18  H    0.000004  -0.000212   0.003026   0.001118   0.000012  -0.000001
              7          8          9         10         11         12
     1  C    0.000220   0.357756  -0.048495   0.008854  -0.000612   0.004926
     2  C   -0.009267  -0.038381   0.355152  -0.093364   0.015605   0.000566
     3  C   -0.042320   0.003026  -0.042319   0.441051  -0.031545   0.005095
     4  C    0.005095   0.001118   0.005095  -0.031545   0.441050  -0.042319
     5  C   -0.000193   0.004544   0.000566   0.015605  -0.093365   0.355152
     6  C    0.000013  -0.042707   0.004926  -0.000612   0.008854  -0.048495
     7  H    0.607032  -0.000012   0.006508   0.355152   0.000566   0.000003
     8  H   -0.000012   0.598885  -0.006131  -0.000212   0.000012  -0.000209
     9  H    0.006508  -0.006131   0.607031  -0.009266  -0.000193   0.000023
    10  C    0.355152  -0.000212  -0.009266   5.100785  -0.073019  -0.000193
    11  C    0.000566   0.000012  -0.000193  -0.073019   5.100786  -0.009266
    12  H    0.000003  -0.000209   0.000023  -0.000193  -0.009266   0.607031
    13  H    0.000000  -0.005164  -0.000209   0.000012  -0.000212  -0.006131
    14  C    0.004926  -0.000001   0.000013  -0.018903   0.525250   0.000220
    15  C   -0.048496   0.000004   0.000220   0.525248  -0.018903   0.000013
    16  H    0.000023   0.000000   0.000003   0.000566   0.355152   0.006508
    17  H   -0.000209   0.000000   0.000000   0.004544  -0.038381  -0.000012
    18  H   -0.006131   0.000000  -0.000012  -0.038381   0.004544   0.000000
             13         14         15         16         17         18
     1  C   -0.042707   0.000058  -0.000401   0.000013  -0.000001   0.000004
     2  C    0.004544  -0.000612   0.008855  -0.000193   0.000012  -0.000212
     3  C    0.001118  -0.041562  -0.001212   0.005095   0.001118   0.003026
     4  C    0.003026  -0.001212  -0.041562  -0.042320   0.003026   0.001118
     5  C   -0.038381   0.008855  -0.000612  -0.009266  -0.000212   0.000012
     6  C    0.357756  -0.000401   0.000058   0.000220   0.000004  -0.000001
     7  H    0.000000   0.004926  -0.048496   0.000023  -0.000209  -0.006131
     8  H   -0.005164  -0.000001   0.000004   0.000000   0.000000   0.000000
     9  H   -0.000209   0.000013   0.000220   0.000003   0.000000  -0.000012
    10  C    0.000012  -0.018903   0.525248   0.000566   0.004544  -0.038381
    11  C   -0.000212   0.525250  -0.018903   0.355152  -0.038381   0.004544
    12  H   -0.006131   0.000220   0.000013   0.006508  -0.000012   0.000000
    13  H    0.598885   0.000004  -0.000001  -0.000012   0.000000   0.000000
    14  C    0.000004   4.897367   0.493284  -0.048496   0.357756  -0.042707
    15  C   -0.000001   0.493284   4.897370   0.004926  -0.042707   0.357756
    16  H   -0.000012  -0.048496   0.004926   0.607032  -0.006131  -0.000209
    17  H    0.000000   0.357756  -0.042707  -0.006131   0.598885  -0.005164
    18  H    0.000000  -0.042707   0.357756  -0.000209  -0.005164   0.598884
 Mulliken atomic charges:
              1
     1  C   -0.133835
     2  C   -0.186341
     3  C    0.131218
     4  C    0.131219
     5  C   -0.186341
     6  C   -0.133835
     7  H    0.127088
     8  H    0.127471
     9  H    0.127088
    10  C   -0.186322
    11  C   -0.186324
    12  H    0.127088
    13  H    0.127471
    14  C   -0.133838
    15  C   -0.133839
    16  H    0.127088
    17  H    0.127471
    18  H    0.127471
 Sum of Mulliken charges=   0.00000
 Atomic charges with hydrogens summed into heavy atoms:
              1
     1  C   -0.006364
     2  C   -0.059253
     3  C    0.131218
     4  C    0.131219
     5  C   -0.059252
     6  C   -0.006364
     7  H    0.000000
     8  H    0.000000
     9  H    0.000000
    10  C   -0.059234
    11  C   -0.059236
    12  H    0.000000
    13  H    0.000000
    14  C   -0.006367
    15  C   -0.006368
    16  H    0.000000
    17  H    0.000000
    18  H    0.000000
 Sum of Mulliken charges=   0.00000
 APT atomic charges:
              1
     1  C   -0.020511
     2  C   -0.007545
     3  C   -0.002635
     4  C   -0.002634
     5  C   -0.007546
     6  C   -0.020510
     7  H    0.015873
     8  H    0.013496
     9  H    0.015875
    10  C   -0.007538
    11  C   -0.007538
    12  H    0.015875
    13  H    0.013496
    14  C   -0.020510
    15  C   -0.020511
    16  H    0.015873
    17  H    0.013495
    18  H    0.013496
 Sum of APT charges=   0.00000
 APT Atomic charges with hydrogens summed into heavy atoms:
              1
     1  C   -0.007015
     2  C    0.008330
     3  C   -0.002635
     4  C   -0.002634
     5  C    0.008329
     6  C   -0.007014
     7  H    0.000000
     8  H    0.000000
     9  H    0.000000
    10  C    0.008336
    11  C    0.008334
    12  H    0.000000
    13  H    0.000000
    14  C   -0.007016
    15  C   -0.007015
    16  H    0.000000
    17  H    0.000000
    18  H    0.000000
 Sum of APT charges=   0.00000
 Electronic spatial extent (au):  <R**2>=  1276.2157
 Charge=     0.0000 electrons
 Dipole moment (field-independent basis, Debye):
    X=     0.0000    Y=     0.0000    Z=     0.0000  Tot=     0.0000
 Quadrupole moment (field-independent basis, Debye-Ang):
   XX=   -50.7235   YY=   -51.0588   ZZ=   -61.8651
   XY=     0.0000   XZ=     0.0000   YZ=     0.0000
 Traceless Quadrupole moment (field-independent basis, Debye-Ang):
   XX=     3.8257   YY=     3.4903   ZZ=    -7.3159
   XY=     0.0000   XZ=     0.0000   YZ=     0.0000
 Octapole moment (field-independent basis, Debye-Ang**2):
  XXX=     0.0005  YYY=     0.0000  ZZZ=     0.0000  XYY=    -0.0003
  XXY=    -0.0001  XXZ=     0.0001  XZZ=     0.0000  YZZ=     0.0000
  YYZ=     0.0000  XYZ=     0.0000
 Hexadecapole moment (field-independent basis, Debye-Ang**3):
 XXXX= -1066.4949 YYYY=  -473.9005 ZZZZ=   -63.9807 XXXY=     0.0001
 XXXZ=    -0.0002 YYYX=    -0.0002 YYYZ=    -0.0002 ZZZX=     0.0000
 ZZZY=     0.0000 XXYY=  -260.8422 XXZZ=  -226.6095 YYZZ=  -105.0442
 XXYZ=     0.0000 YYXZ=     0.0000 ZZXY=     0.0000
 N-N= 4.603758292510D+02 E-N=-1.814237424423D+03  KE= 3.824960789506D+02
  Exact polarizability: 149.389   0.000 107.685   0.000   0.000  32.475
 Approx polarizability: 254.628   0.000 190.842   0.000   0.000  50.701
 Full mass-weighted force constant matrix:
 Low frequencies ---  -98.6105  -73.7827  -65.7005   -0.0007   -0.0003    0.0005
 Low frequencies ---  106.2779  165.5745  345.0942
 Diagonal vibrational polarizability:
        0.6628168       0.7181776      11.2115557
 Harmonic frequencies (cm**-1), IR intensities (KM/Mole), Raman scattering
 activities (A**4/AMU), depolarization ratios for plane and unpolarized
 incident light, reduced masses (AMU), force constants (mDyne/A),
 and normal coordinates:
                     1                      2                      3
                     A                      A                      A
 Frequencies --   106.2779               165.5745               345.0942
 Red. masses --     3.8874                 3.1287                 3.7211
 Frc consts  --     0.0259                 0.0505                 0.2611
 IR Inten    --     2.0031                 0.0000                 1.0904
 Atom AN      X      Y      Z        X      Y      Z        X      Y      Z
   1   6     0.00   0.00  -0.18     0.00   0.00   0.14    -0.04  -0.14   0.00
   2   6     0.00   0.00   0.10     0.00   0.00   0.17    -0.12   0.05   0.00
   3   6     0.00   0.00   0.21     0.00   0.00   0.00     0.00   0.21   0.00
   4   6     0.00   0.00   0.21     0.00   0.00   0.00     0.00   0.21   0.00
   5   6     0.00   0.00   0.10     0.00   0.00  -0.17     0.12   0.05   0.00
   6   6     0.00   0.00  -0.18     0.00   0.00  -0.14     0.04  -0.14   0.00
   7   1     0.00   0.00   0.11     0.00   0.00  -0.33     0.35   0.05   0.00
   8   1     0.00   0.00  -0.42     0.00   0.00   0.30    -0.10  -0.24   0.00
   9   1     0.00   0.00   0.11     0.00   0.00   0.33    -0.35   0.05   0.00
  10   6     0.00   0.00   0.10     0.00   0.00  -0.17     0.12   0.05   0.00
  11   6     0.00   0.00   0.10     0.00   0.00   0.17    -0.12   0.05   0.00
  12   1     0.00   0.00   0.11     0.00   0.00  -0.33     0.35   0.05   0.00
  13   1     0.00   0.00  -0.42     0.00   0.00  -0.30     0.10  -0.24   0.00
  14   6     0.00   0.00  -0.18     0.00   0.00   0.14    -0.04  -0.14   0.00
  15   6     0.00   0.00  -0.18     0.00   0.00  -0.14     0.04  -0.14   0.00
  16   1     0.00   0.00   0.11     0.00   0.00   0.33    -0.35   0.05   0.00
  17   1     0.00   0.00  -0.42     0.00   0.00   0.30    -0.10  -0.24   0.00
  18   1     0.00   0.00  -0.42     0.00   0.00  -0.30     0.10  -0.24   0.00
                     4                      5                      6
                     A                      A                      A
 Frequencies --   366.4372               453.3536               461.2404
 Red. masses --     3.0620                 3.1006                 2.1823
 Frc consts  --     0.2422                 0.3755                 0.2735
 IR Inten    --     0.0000                 0.0000                19.6394
 Atom AN      X      Y      Z        X      Y      Z        X      Y      Z
   1   6     0.00   0.00  -0.10     0.00   0.00   0.16     0.00   0.00   0.05
   2   6     0.00   0.00   0.19     0.00   0.00  -0.07     0.00   0.00  -0.09
   3   6     0.00   0.00   0.00     0.00   0.00  -0.17     0.00   0.00   0.18
   4   6     0.00   0.00   0.00     0.00   0.00   0.17     0.00   0.00   0.18
   5   6     0.00   0.00   0.19     0.00   0.00   0.07     0.00   0.00  -0.09
   6   6     0.00   0.00  -0.10     0.00   0.00  -0.16     0.00   0.00   0.05
   7   1     0.00   0.00  -0.41     0.00   0.00   0.01     0.00   0.00  -0.46
   8   1     0.00   0.00  -0.18     0.00   0.00   0.45     0.00   0.00  -0.12
   9   1     0.00   0.00   0.41     0.00   0.00   0.01     0.00   0.00  -0.46
  10   6     0.00   0.00  -0.19     0.00   0.00  -0.07     0.00   0.00  -0.09
  11   6     0.00   0.00  -0.19     0.00   0.00   0.07     0.00   0.00  -0.09
  12   1     0.00   0.00   0.41     0.00   0.00  -0.01     0.00   0.00  -0.46
  13   1     0.00   0.00  -0.18     0.00   0.00  -0.45     0.00   0.00  -0.12
  14   6     0.00   0.00   0.10     0.00   0.00  -0.16     0.00   0.00   0.05
  15   6     0.00   0.00   0.10     0.00   0.00   0.16     0.00   0.00   0.05
  16   1     0.00   0.00  -0.41     0.00   0.00  -0.01     0.00   0.00  -0.46
  17   1     0.00   0.00   0.18     0.00   0.00  -0.45     0.00   0.00  -0.12
  18   1     0.00   0.00   0.18     0.00   0.00   0.45     0.00   0.00  -0.12
                     7                      8                      9
                     A                      A                      A
 Frequencies --   518.6664               523.0925               619.5193
 Red. masses --     7.0079                 6.5878                 3.3852
 Frc consts  --     1.1108                 1.0621                 0.7655
 IR Inten    --     0.0000                 0.0000                 0.0000
 Atom AN      X      Y      Z        X      Y      Z        X      Y      Z
   1   6    -0.19   0.15   0.00     0.29   0.00   0.00     0.00   0.00   0.17
   2   6    -0.20   0.14   0.00     0.17   0.12   0.00     0.00   0.00  -0.16
   3   6    -0.20   0.00   0.00     0.00   0.01   0.00     0.00   0.00   0.00
   4   6     0.20   0.00   0.00     0.00  -0.01   0.00     0.00   0.00   0.00
   5   6     0.20   0.14   0.00     0.17  -0.12   0.00     0.00   0.00   0.16
   6   6     0.19   0.15   0.00     0.29   0.00   0.00     0.00   0.00  -0.17
   7   1    -0.06  -0.14   0.00    -0.21   0.12   0.00     0.00   0.00   0.21
   8   1    -0.30  -0.05   0.00     0.22  -0.12   0.00     0.00   0.00   0.39
   9   1    -0.06   0.14   0.00     0.21   0.12   0.00     0.00   0.00  -0.21
  10   6    -0.20  -0.14   0.00    -0.17   0.12   0.00     0.00   0.00   0.16
  11   6     0.20  -0.14   0.00    -0.17  -0.12   0.00     0.00   0.00  -0.16
  12   1     0.06   0.14   0.00     0.21  -0.12   0.00     0.00   0.00   0.21
  13   1     0.30  -0.05   0.00     0.22   0.12   0.00     0.00   0.00  -0.39
  14   6     0.19  -0.15   0.00    -0.29   0.00   0.00     0.00   0.00   0.17
  15   6    -0.19  -0.15   0.00    -0.29   0.00   0.00     0.00   0.00  -0.17
  16   1     0.06  -0.14   0.00    -0.21  -0.12   0.00     0.00   0.00  -0.21
  17   1     0.30   0.05   0.00    -0.22   0.12   0.00     0.00   0.00   0.39
  18   1    -0.30   0.05   0.00    -0.22  -0.12   0.00     0.00   0.00  -0.39
                    10                     11                     12
                     A                      A                      A
 Frequencies --   632.3215               668.8201               757.5431
 Red. masses --     6.2266                 1.1517                 1.4874
 Frc consts  --     1.4668                 0.3035                 0.5029
 IR Inten    --     4.0516                 0.0000                82.0028
 Atom AN      X      Y      Z        X      Y      Z        X      Y      Z
   1   6    -0.13  -0.03   0.00     0.00   0.00   0.03     0.00   0.00  -0.05
   2   6     0.04  -0.29   0.00     0.00   0.00   0.05     0.00   0.00  -0.06
   3   6     0.18   0.00   0.00     0.00   0.00   0.00     0.00   0.00   0.10
   4   6     0.18   0.00   0.00     0.00   0.00   0.00     0.00   0.00   0.10
   5   6     0.04   0.29   0.00     0.00   0.00   0.05     0.00   0.00  -0.06
   6   6    -0.13   0.03   0.00     0.00   0.00   0.03     0.00   0.00  -0.05
   7   1     0.05   0.29   0.00     0.00   0.00   0.32     0.00   0.00   0.19
   8   1     0.01   0.21   0.00     0.00   0.00  -0.38     0.00   0.00   0.45
   9   1     0.05  -0.29   0.00     0.00   0.00  -0.32     0.00   0.00   0.19
  10   6     0.04   0.29   0.00     0.00   0.00  -0.05     0.00   0.00  -0.06
  11   6     0.04  -0.29   0.00     0.00   0.00  -0.05     0.00   0.00  -0.06
  12   1     0.05   0.29   0.00     0.00   0.00  -0.32     0.00   0.00   0.19
  13   1     0.01  -0.21   0.00     0.00   0.00  -0.38     0.00   0.00   0.45
  14   6    -0.13  -0.03   0.00     0.00   0.00  -0.03     0.00   0.00  -0.05
  15   6    -0.13   0.03   0.00     0.00   0.00  -0.03     0.00   0.00  -0.05
  16   1     0.05  -0.29   0.00     0.00   0.00   0.32     0.00   0.00   0.19
  17   1     0.01   0.21   0.00     0.00   0.00   0.38     0.00   0.00   0.45
  18   1     0.01  -0.21   0.00     0.00   0.00   0.38     0.00   0.00   0.45
                    13                     14                     15
                     A                      A                      A
 Frequencies --   766.1583               789.5139               802.7244
 Red. masses --     2.2560                 4.2261                 1.3171
 Frc consts  --     0.7803                 1.5521                 0.5000
 IR Inten    --     0.0000                 0.0000                 0.0000
 Atom AN      X      Y      Z        X      Y      Z        X      Y      Z
   1   6     0.00   0.00   0.11    -0.02   0.02   0.00     0.00   0.00   0.06
   2   6     0.00   0.00  -0.02    -0.11   0.23   0.00     0.00   0.00   0.06
   3   6     0.00   0.00   0.18     0.00   0.13   0.00     0.00   0.00   0.00
   4   6     0.00   0.00  -0.18     0.00  -0.13   0.00     0.00   0.00   0.00
   5   6     0.00   0.00   0.02    -0.11  -0.23   0.00     0.00   0.00  -0.06
   6   6     0.00   0.00  -0.11    -0.02  -0.02   0.00     0.00   0.00  -0.06
   7   1     0.00   0.00  -0.46     0.27   0.23   0.00     0.00   0.00   0.42
   8   1     0.00   0.00  -0.09    -0.14  -0.17   0.00     0.00   0.00  -0.25
   9   1     0.00   0.00  -0.46    -0.27   0.23   0.00     0.00   0.00  -0.42
  10   6     0.00   0.00  -0.02     0.11   0.23   0.00     0.00   0.00  -0.06
  11   6     0.00   0.00   0.02     0.11  -0.23   0.00     0.00   0.00   0.06
  12   1     0.00   0.00   0.46    -0.27  -0.23   0.00     0.00   0.00   0.42
  13   1     0.00   0.00   0.09    -0.14   0.17   0.00     0.00   0.00   0.25
  14   6     0.00   0.00  -0.11     0.02  -0.02   0.00     0.00   0.00   0.06
  15   6     0.00   0.00   0.11     0.02   0.02   0.00     0.00   0.00  -0.06
  16   1     0.00   0.00   0.46     0.27  -0.23   0.00     0.00   0.00  -0.42
  17   1     0.00   0.00   0.09     0.14   0.17   0.00     0.00   0.00  -0.25
  18   1     0.00   0.00  -0.09     0.14  -0.17   0.00     0.00   0.00   0.25
                    16                     17                     18
                     A                      A                      A
 Frequencies --   808.7948               869.1631               911.1169
 Red. masses --     5.2089                 2.1983                 1.3200
 Frc consts  --     2.0076                 0.9785                 0.6456
 IR Inten    --     0.1996                 0.0000                 0.0000
 Atom AN      X      Y      Z        X      Y      Z        X      Y      Z
   1   6     0.24  -0.11   0.00     0.00   0.00   0.03     0.00   0.00   0.06
   2   6     0.12   0.05   0.00     0.00   0.00   0.10     0.00   0.00  -0.06
   3   6     0.00   0.10   0.00     0.00   0.00  -0.18     0.00   0.00   0.00
   4   6     0.00   0.10   0.00     0.00   0.00   0.18     0.00   0.00   0.00
   5   6    -0.12   0.05   0.00     0.00   0.00  -0.10     0.00   0.00  -0.06
   6   6    -0.24  -0.11   0.00     0.00   0.00  -0.03     0.00   0.00   0.06
   7   1     0.07   0.05   0.00     0.00   0.00  -0.31     0.00   0.00  -0.36
   8   1     0.37   0.11   0.00     0.00   0.00  -0.36     0.00   0.00  -0.33
   9   1    -0.07   0.05   0.00     0.00   0.00  -0.31     0.00   0.00   0.36
  10   6    -0.12   0.05   0.00     0.00   0.00   0.10     0.00   0.00   0.06
  11   6     0.12   0.05   0.00     0.00   0.00  -0.10     0.00   0.00   0.06
  12   1     0.07   0.05   0.00     0.00   0.00   0.31     0.00   0.00   0.36
  13   1    -0.37   0.11   0.00     0.00   0.00   0.36     0.00   0.00  -0.33
  14   6     0.24  -0.11   0.00     0.00   0.00  -0.03     0.00   0.00  -0.06
  15   6    -0.24  -0.11   0.00     0.00   0.00   0.03     0.00   0.00  -0.06
  16   1    -0.07   0.05   0.00     0.00   0.00   0.31     0.00   0.00  -0.36
  17   1     0.37   0.11   0.00     0.00   0.00   0.36     0.00   0.00   0.33
  18   1    -0.37   0.11   0.00     0.00   0.00  -0.36     0.00   0.00   0.33
                    19                     20                     21
                     A                      A                      A
 Frequencies --   928.9388               948.3304               949.3847
 Red. masses --     1.4162                 4.9426                 1.2873
 Frc consts  --     0.7200                 2.6189                 0.6836
 IR Inten    --     3.5049                 0.0000                 0.0000
 Atom AN      X      Y      Z        X      Y      Z        X      Y      Z
   1   6     0.00   0.00  -0.05     0.14  -0.11   0.00     0.00   0.00  -0.07
   2   6     0.00   0.00   0.08    -0.02   0.23   0.00     0.00   0.00   0.04
   3   6     0.00   0.00  -0.03    -0.05   0.00   0.00     0.00   0.00   0.00
   4   6     0.00   0.00  -0.03     0.05   0.00   0.00     0.00   0.00   0.00
   5   6     0.00   0.00   0.08     0.02   0.23   0.00     0.00   0.00  -0.04
   6   6     0.00   0.00  -0.05    -0.14  -0.11   0.00     0.00   0.00   0.07
   7   1     0.00   0.00  -0.41    -0.25  -0.23   0.00     0.00   0.00   0.29
   8   1     0.00   0.00   0.28     0.11  -0.17   0.00     0.00   0.00   0.40
   9   1     0.00   0.00  -0.41    -0.25   0.23   0.00     0.00   0.00  -0.29
  10   6     0.00   0.00   0.08    -0.02  -0.23   0.00     0.00   0.00  -0.04
  11   6     0.00   0.00   0.08     0.02  -0.23   0.00     0.00   0.00   0.04
  12   1     0.00   0.00  -0.41     0.25   0.23   0.00     0.00   0.00   0.29
  13   1     0.00   0.00   0.28    -0.11  -0.17   0.00     0.00   0.00  -0.40
  14   6     0.00   0.00  -0.05    -0.14   0.11   0.00     0.00   0.00  -0.07
  15   6     0.00   0.00  -0.05     0.14   0.11   0.00     0.00   0.00   0.07
  16   1     0.00   0.00  -0.41     0.25  -0.23   0.00     0.00   0.00  -0.29
  17   1     0.00   0.00   0.28    -0.11   0.17   0.00     0.00   0.00   0.40
  18   1     0.00   0.00   0.28     0.11   0.17   0.00     0.00   0.00  -0.40
                    22                     23                     24
                     A                      A                      A
 Frequencies --   959.9351              1046.9257              1055.3699
 Red. masses --     1.3234                 2.3718                 2.0613
 Frc consts  --     0.7185                 1.5316                 1.3527
 IR Inten    --     0.0000                 5.1200                 0.0000
 Atom AN      X      Y      Z        X      Y      Z        X      Y      Z
   1   6     0.00   0.00   0.07    -0.09   0.13   0.00     0.07  -0.12   0.00
   2   6     0.00   0.00  -0.05     0.03   0.06   0.00    -0.04  -0.06   0.00
   3   6     0.00   0.00   0.01     0.05   0.00   0.00     0.00   0.03   0.00
   4   6     0.00   0.00  -0.01     0.05   0.00   0.00     0.00  -0.03   0.00
   5   6     0.00   0.00   0.05     0.03  -0.06   0.00    -0.04   0.06   0.00
   6   6     0.00   0.00  -0.07    -0.09  -0.13   0.00     0.07   0.12   0.00
   7   1     0.00   0.00   0.31     0.32  -0.07   0.00     0.39  -0.07   0.00
   8   1     0.00   0.00  -0.38     0.01   0.33   0.00    -0.01  -0.27   0.00
   9   1     0.00   0.00   0.31     0.32   0.07   0.00    -0.39  -0.07   0.00
  10   6     0.00   0.00  -0.05     0.03  -0.06   0.00     0.04  -0.06   0.00
  11   6     0.00   0.00   0.05     0.03   0.06   0.00     0.04   0.06   0.00
  12   1     0.00   0.00  -0.31     0.32  -0.07   0.00    -0.39   0.07   0.00
  13   1     0.00   0.00   0.38     0.01  -0.33   0.00    -0.01   0.27   0.00
  14   6     0.00   0.00  -0.07    -0.09   0.13   0.00    -0.07   0.12   0.00
  15   6     0.00   0.00   0.07    -0.09  -0.13   0.00    -0.07  -0.12   0.00
  16   1     0.00   0.00  -0.31     0.32   0.07   0.00     0.39   0.07   0.00
  17   1     0.00   0.00   0.38     0.02   0.33   0.00     0.01   0.27   0.00
  18   1     0.00   0.00  -0.38     0.02  -0.33   0.00     0.01  -0.27   0.00
                    25                     26                     27
                     A                      A                      A
 Frequencies --  1159.1144              1178.5664              1178.7728
 Red. masses --     1.6285                 1.0963                 1.0581
 Frc consts  --     1.2891                 0.8972                 0.8662
 IR Inten    --     4.1299                 1.0050                 0.0000
 Atom AN      X      Y      Z        X      Y      Z        X      Y      Z
   1   6     0.01  -0.04   0.00     0.02   0.02   0.00    -0.01  -0.02   0.00
   2   6     0.02   0.10   0.00    -0.02   0.01   0.00     0.00   0.00   0.00
   3   6     0.00  -0.08   0.00     0.03   0.00   0.00     0.00  -0.04   0.00
   4   6     0.00  -0.08   0.00     0.03   0.00   0.00     0.00   0.04   0.00
   5   6    -0.02   0.10   0.00    -0.02  -0.01   0.00     0.00   0.00   0.00
   6   6    -0.01  -0.04   0.00     0.02  -0.02   0.00    -0.01   0.02   0.00
   7   1    -0.26   0.10   0.00    -0.36  -0.01   0.00    -0.26   0.00   0.00
   8   1    -0.18  -0.36   0.00     0.18   0.30   0.00    -0.21  -0.36   0.00
   9   1     0.26   0.10   0.00    -0.36   0.01   0.00     0.26   0.00   0.00
  10   6    -0.02   0.10   0.00    -0.02  -0.01   0.00     0.00   0.00   0.00
  11   6     0.02   0.10   0.00    -0.02   0.01   0.00     0.00   0.00   0.00
  12   1    -0.26   0.10   0.00    -0.36  -0.01   0.00     0.26   0.00   0.00
  13   1     0.18  -0.36   0.00     0.18  -0.30   0.00    -0.21   0.36   0.00
  14   6     0.01  -0.04   0.00     0.02   0.02   0.00     0.01   0.02   0.00
  15   6    -0.01  -0.04   0.00     0.02  -0.02   0.00     0.01  -0.02   0.00
  16   1     0.26   0.10   0.00    -0.36   0.01   0.00    -0.26   0.00   0.00
  17   1    -0.17  -0.36   0.00     0.18   0.29   0.00     0.21   0.37   0.00
  18   1     0.17  -0.36   0.00     0.18  -0.29   0.00     0.21  -0.37   0.00
                    28                     29                     30
                     A                      A                      A
 Frequencies --  1184.1015              1241.4518              1266.8390
 Red. masses --     1.1644                 2.2702                 1.5970
 Frc consts  --     0.9619                 2.0614                 1.5101
 IR Inten    --     0.0000                 1.0362                 0.0000
 Atom AN      X      Y      Z        X      Y      Z        X      Y      Z
   1   6     0.02   0.02   0.00    -0.04   0.03   0.00    -0.03   0.03   0.00
   2   6    -0.04  -0.03   0.00    -0.03   0.05   0.00     0.03   0.01   0.00
   3   6    -0.03   0.00   0.00     0.21   0.00   0.00     0.14   0.00   0.00
   4   6     0.03   0.00   0.00     0.21   0.00   0.00    -0.14   0.00   0.00
   5   6     0.04  -0.03   0.00    -0.03  -0.05   0.00    -0.03   0.01   0.00
   6   6    -0.02   0.02   0.00    -0.04  -0.03   0.00     0.03   0.03   0.00
   7   1    -0.34   0.03   0.00    -0.24  -0.06   0.00    -0.41  -0.02   0.00
   8   1     0.19   0.31   0.00    -0.25  -0.32   0.00    -0.17  -0.20   0.00
   9   1    -0.34  -0.03   0.00    -0.24   0.06   0.00    -0.41   0.02   0.00
  10   6    -0.04   0.03   0.00    -0.03  -0.05   0.00     0.03  -0.01   0.00
  11   6     0.04   0.03   0.00    -0.03   0.05   0.00    -0.03  -0.01   0.00
  12   1     0.34  -0.03   0.00    -0.24  -0.06   0.00     0.41   0.02   0.00
  13   1    -0.19   0.31   0.00    -0.25   0.32   0.00     0.17  -0.20   0.00
  14   6    -0.02  -0.02   0.00    -0.04   0.03   0.00     0.03  -0.03   0.00
  15   6     0.02  -0.02   0.00    -0.04  -0.03   0.00    -0.03  -0.03   0.00
  16   1     0.34   0.03   0.00    -0.24   0.06   0.00     0.41  -0.02   0.00
  17   1    -0.19  -0.31   0.00    -0.25  -0.32   0.00     0.17   0.20   0.00
  18   1     0.19  -0.31   0.00    -0.25   0.32   0.00    -0.17   0.20   0.00
                    31                     32                     33
                     A                      A                      A
 Frequencies --  1292.5654              1419.9536              1467.4851
 Red. masses --     1.7364                 1.7019                 4.6128
 Frc consts  --     1.7092                 2.0218                 5.8528
 IR Inten    --     7.1924                 3.4690                 1.2777
 Atom AN      X      Y      Z        X      Y      Z        X      Y      Z
   1   6    -0.02  -0.01   0.00     0.02   0.06   0.00    -0.14  -0.09   0.00
   2   6     0.03  -0.06   0.00     0.08  -0.06   0.00     0.22   0.06   0.00
   3   6     0.00   0.15   0.00     0.00   0.06   0.00    -0.09   0.00   0.00
   4   6     0.00   0.15   0.00     0.00   0.06   0.00    -0.09   0.00   0.00
   5   6    -0.03  -0.06   0.00    -0.08  -0.06   0.00     0.22  -0.06   0.00
   6   6     0.02  -0.01   0.00    -0.02   0.06   0.00    -0.14   0.09   0.00
   7   1    -0.48  -0.06   0.00     0.24  -0.06   0.00    -0.39  -0.08   0.00
   8   1    -0.02  -0.01   0.00    -0.21  -0.36   0.00    -0.10   0.01   0.00
   9   1     0.48  -0.06   0.00    -0.24  -0.06   0.00    -0.39   0.08   0.00
  10   6    -0.03  -0.06   0.00    -0.08  -0.06   0.00     0.22  -0.06   0.00
  11   6     0.03  -0.06   0.00     0.08  -0.06   0.00     0.22   0.06   0.00
  12   1    -0.48  -0.06   0.00     0.24  -0.06   0.00    -0.39  -0.08   0.00
  13   1     0.02  -0.01   0.00     0.21  -0.36   0.00    -0.10  -0.01   0.00
  14   6    -0.02  -0.01   0.00     0.02   0.06   0.00    -0.14  -0.09   0.00
  15   6     0.02  -0.01   0.00    -0.02   0.06   0.00    -0.14   0.09   0.00
  16   1     0.48  -0.06   0.00    -0.24  -0.06   0.00    -0.39   0.08   0.00
  17   1    -0.02  -0.01   0.00    -0.21  -0.36   0.00    -0.10   0.01   0.00
  18   1     0.02  -0.01   0.00     0.21  -0.36   0.00    -0.10  -0.01   0.00
                    34                     35                     36
                     A                      A                      A
 Frequencies --  1478.2536              1508.2284              1513.1653
 Red. masses --     4.8531                 2.4960                 2.8291
 Frc consts  --     6.2483                 3.3453                 3.8166
 IR Inten    --     0.0000                 0.0000                 0.0000
 Atom AN      X      Y      Z        X      Y      Z        X      Y      Z
   1   6     0.07   0.15   0.00    -0.05   0.07   0.00     0.10   0.08   0.00
   2   6    -0.07   0.00   0.00     0.15  -0.02   0.00     0.04  -0.07   0.00
   3   6     0.00  -0.33   0.00     0.00   0.07   0.00    -0.19   0.00   0.00
   4   6     0.00   0.33   0.00     0.00  -0.07   0.00     0.19   0.00   0.00
   5   6    -0.07   0.00   0.00     0.15   0.02   0.00    -0.04  -0.07   0.00
   6   6     0.07  -0.15   0.00    -0.05  -0.07   0.00    -0.10   0.08   0.00
   7   1     0.37   0.00   0.00     0.36  -0.01   0.00    -0.17   0.08   0.00
   8   1    -0.09  -0.13   0.00    -0.22  -0.19   0.00    -0.15  -0.39   0.00
   9   1    -0.37   0.00   0.00    -0.36  -0.01   0.00    -0.17  -0.08   0.00
  10   6     0.07   0.00   0.00    -0.15  -0.02   0.00     0.04   0.07   0.00
  11   6     0.07   0.00   0.00    -0.15   0.02   0.00    -0.04   0.07   0.00
  12   1    -0.37   0.00   0.00    -0.36   0.01   0.00     0.17  -0.08   0.00
  13   1    -0.09   0.13   0.00    -0.22   0.19   0.00     0.15  -0.39   0.00
  14   6    -0.07  -0.15   0.00     0.05  -0.07   0.00    -0.10  -0.08   0.00
  15   6    -0.07   0.15   0.00     0.05   0.07   0.00     0.10  -0.08   0.00
  16   1     0.37   0.00   0.00     0.36   0.01   0.00     0.17   0.08   0.00
  17   1     0.09   0.13   0.00     0.22   0.19   0.00     0.15   0.38   0.00
  18   1     0.09  -0.13   0.00     0.22  -0.19   0.00    -0.15   0.38   0.00
                    37                     38                     39
                     A                      A                      A
 Frequencies --  1568.8193              1684.5956              1713.1592
 Red. masses --     3.7994                 7.7351                 5.8378
 Frc consts  --     5.5095                12.9332                10.0947
 IR Inten    --     6.2599                 0.0000                 3.5094
 Atom AN      X      Y      Z        X      Y      Z        X      Y      Z
   1   6     0.05   0.20   0.00     0.13   0.22   0.00     0.20   0.11   0.00
   2   6     0.06  -0.09   0.00    -0.14  -0.14   0.00    -0.23  -0.07   0.00
   3   6    -0.14   0.00   0.00     0.00   0.31   0.00     0.00  -0.01   0.00
   4   6    -0.14   0.00   0.00     0.00  -0.31   0.00     0.00  -0.01   0.00
   5   6     0.06   0.09   0.00    -0.14   0.14   0.00     0.23  -0.07   0.00
   6   6     0.05  -0.20   0.00     0.13  -0.22   0.00    -0.20   0.11   0.00
   7   1    -0.27   0.10   0.00    -0.20  -0.15   0.00    -0.21  -0.09   0.00
   8   1    -0.21  -0.24   0.00    -0.08  -0.17   0.00     0.00  -0.30   0.00
   9   1    -0.27  -0.10   0.00     0.20  -0.15   0.00     0.21  -0.09   0.00
  10   6     0.06   0.09   0.00     0.14  -0.14   0.00     0.23  -0.07   0.00
  11   6     0.06  -0.09   0.00     0.14   0.14   0.00    -0.23  -0.07   0.00
  12   1    -0.27   0.10   0.00     0.20   0.15   0.00    -0.21  -0.09   0.00
  13   1    -0.21   0.24   0.00    -0.08   0.17   0.00     0.00  -0.30   0.00
  14   6     0.05   0.20   0.00    -0.13  -0.22   0.00     0.20   0.11   0.00
  15   6     0.05  -0.20   0.00    -0.13   0.22   0.00    -0.20   0.11   0.00
  16   1    -0.27  -0.10   0.00    -0.20   0.15   0.00     0.21  -0.09   0.00
  17   1    -0.21  -0.24   0.00     0.08   0.17   0.00     0.00  -0.30   0.00
  18   1    -0.21   0.24   0.00     0.08  -0.17   0.00     0.00  -0.30   0.00
                    40                     41                     42
                     A                      A                      A
 Frequencies --  1728.8564              3281.7625              3283.4472
 Red. masses --     6.6139                 1.0851                 1.0850
 Frc consts  --    11.6473                 6.8853                 6.8918
 IR Inten    --     0.0000                 0.0000                 6.2661
 Atom AN      X      Y      Z        X      Y      Z        X      Y      Z
   1   6    -0.17  -0.09   0.00     0.02  -0.01   0.00    -0.02   0.01   0.00
   2   6     0.25   0.04   0.00     0.00   0.03   0.00     0.00  -0.03   0.00
   3   6    -0.23   0.00   0.00     0.00   0.00   0.00     0.00   0.00   0.00
   4   6     0.23   0.00   0.00     0.00   0.00   0.00     0.00   0.00   0.00
   5   6    -0.25   0.04   0.00     0.00   0.03   0.00     0.00  -0.03   0.00
   6   6     0.17  -0.09   0.00    -0.02  -0.01   0.00     0.02   0.01   0.00
   7   1    -0.26  -0.06   0.00     0.00   0.40   0.00     0.00   0.37   0.00
   8   1    -0.02   0.22   0.00    -0.26   0.15   0.00     0.29  -0.17   0.00
   9   1    -0.26   0.06   0.00     0.00  -0.40   0.00     0.00   0.37   0.00
  10   6     0.25  -0.05   0.00     0.00  -0.03   0.00     0.00  -0.03   0.00
  11   6    -0.25  -0.05   0.00     0.00  -0.03   0.00     0.00  -0.03   0.00
  12   1     0.26   0.06   0.00     0.00  -0.40   0.00     0.00   0.37   0.00
  13   1     0.02   0.22   0.00     0.26   0.15   0.00    -0.29  -0.17   0.00
  14   6     0.17   0.09   0.00    -0.02   0.01   0.00    -0.02   0.01   0.00
  15   6    -0.17   0.09   0.00     0.02   0.01   0.00     0.02   0.01   0.00
  16   1     0.26  -0.06   0.00     0.00   0.40   0.00     0.00   0.37   0.00
  17   1     0.02  -0.23   0.00     0.26  -0.15   0.00     0.29  -0.17   0.00
  18   1    -0.02  -0.23   0.00    -0.26  -0.15   0.00    -0.29  -0.17   0.00
                    43                     44                     45
                     A                      A                      A
 Frequencies --  3285.7432              3289.1078              3300.5606
 Red. masses --     1.0880                 1.0874                 1.0942
 Frc consts  --     6.9205                 6.9310                 7.0230
 IR Inten    --     1.6486                 0.0000                 0.0000
 Atom AN      X      Y      Z        X      Y      Z        X      Y      Z
   1   6     0.01  -0.01   0.00    -0.02   0.01   0.00     0.03  -0.02   0.00
   2   6     0.00   0.04   0.00     0.00  -0.04   0.00     0.00  -0.03   0.00
   3   6     0.00   0.00   0.00     0.00   0.00   0.00     0.00   0.00   0.00
   4   6     0.00   0.00   0.00     0.00   0.00   0.00     0.00   0.00   0.00
   5   6     0.00  -0.04   0.00     0.00   0.04   0.00     0.00  -0.03   0.00
   6   6     0.01   0.01   0.00    -0.02  -0.01   0.00    -0.03  -0.02   0.00
   7   1     0.00   0.46   0.00     0.00   0.45   0.00     0.00  -0.30   0.00
   8   1    -0.16   0.09   0.00     0.19  -0.11   0.00    -0.35   0.19   0.00
   9   1     0.00  -0.46   0.00     0.00   0.45   0.00     0.00   0.30   0.00
  10   6     0.00  -0.04   0.00     0.00  -0.04   0.00     0.00   0.03   0.00
  11   6     0.00   0.04   0.00     0.00   0.04   0.00     0.00   0.03   0.00
  12   1     0.00   0.46   0.00     0.00  -0.45   0.00     0.00   0.30   0.00
  13   1    -0.16  -0.09   0.00     0.19   0.11   0.00     0.35   0.19   0.00
  14   6     0.01  -0.01   0.00     0.02  -0.01   0.00    -0.03   0.01   0.00
  15   6     0.01   0.01   0.00     0.02   0.01   0.00     0.03   0.01   0.00
  16   1     0.00  -0.46   0.00     0.00  -0.45   0.00     0.00  -0.30   0.00
  17   1    -0.16   0.09   0.00    -0.19   0.11   0.00     0.35  -0.19   0.00
  18   1    -0.16  -0.09   0.00    -0.19  -0.11   0.00    -0.35  -0.19   0.00
                    46                     47                     48
                     A                      A                      A
 Frequencies --  3301.9636              3312.6402              3314.0199
 Red. masses --     1.0943                 1.0976                 1.0973
 Frc consts  --     7.0296                 7.0963                 7.1004
 IR Inten    --    69.2257                56.4033                 0.0000
 Atom AN      X      Y      Z        X      Y      Z        X      Y      Z
   1   6    -0.03   0.01   0.00     0.04  -0.02   0.00    -0.04   0.02   0.00
   2   6     0.00   0.03   0.00     0.00  -0.02   0.00     0.00   0.02   0.00
   3   6     0.00   0.00   0.00     0.00   0.00   0.00     0.00   0.00   0.00
   4   6     0.00   0.00   0.00     0.00   0.00   0.00     0.00   0.00   0.00
   5   6     0.00   0.03   0.00     0.00   0.02   0.00     0.00  -0.02   0.00
   6   6     0.03   0.01   0.00     0.04   0.02   0.00    -0.04  -0.02   0.00
   7   1     0.00  -0.34   0.00     0.00  -0.19   0.00     0.00  -0.22   0.00
   8   1     0.32  -0.18   0.00    -0.40   0.23   0.00     0.39  -0.22   0.00
   9   1     0.00  -0.34   0.00     0.00   0.19   0.00     0.00  -0.22   0.00
  10   6     0.00   0.03   0.00     0.00   0.02   0.00     0.00   0.02   0.00
  11   6     0.00   0.03   0.00     0.00  -0.02   0.00     0.00  -0.02   0.00
  12   1     0.00  -0.34   0.00     0.00  -0.19   0.00     0.00   0.22   0.00
  13   1    -0.32  -0.18   0.00    -0.40  -0.23   0.00     0.39   0.22   0.00
  14   6    -0.03   0.01   0.00     0.04  -0.02   0.00     0.04  -0.02   0.00
  15   6     0.03   0.01   0.00     0.04   0.02   0.00     0.04   0.02   0.00
  16   1     0.00  -0.34   0.00     0.00   0.19   0.00     0.00   0.22   0.00
  17   1     0.32  -0.18   0.00    -0.40   0.23   0.00    -0.39   0.22   0.00
  18   1    -0.32  -0.18   0.00    -0.40  -0.23   0.00    -0.39  -0.22   0.00

 -------------------
 - Thermochemistry -
 -------------------
 Temperature   298.150 Kelvin.  Pressure   1.00000 Atm.
 Atom  1 has atomic number  6 and mass  12.00000
 Atom  2 has atomic number  6 and mass  12.00000
 Atom  3 has atomic number  6 and mass  12.00000
 Atom  4 has atomic number  6 and mass  12.00000
 Atom  5 has atomic number  6 and mass  12.00000
 Atom  6 has atomic number  6 and mass  12.00000
 Atom  7 has atomic number  1 and mass   1.00783
 Atom  8 has atomic number  1 and mass   1.00783
 Atom  9 has atomic number  1 and mass   1.00783
 Atom 10 has atomic number  6 and mass  12.00000
 Atom 11 has atomic number  6 and mass  12.00000
 Atom 12 has atomic number  1 and mass   1.00783
 Atom 13 has atomic number  1 and mass   1.00783
 Atom 14 has atomic number  6 and mass  12.00000
 Atom 15 has atomic number  6 and mass  12.00000
 Atom 16 has atomic number  1 and mass   1.00783
 Atom 17 has atomic number  1 and mass   1.00783
 Atom 18 has atomic number  1 and mass   1.00783
 Molecular mass:   128.06260 amu.
 Principal axes and moments of inertia in atomic units:
                           1         2         3
     EIGENVALUES --   570.765171449.190822019.95599
           X            1.00000   0.00000   0.00000
           Y            0.00000   1.00000   0.00000
           Z            0.00000   0.00000   1.00000
 This molecule is an asymmetric top.
 Rotational symmetry number  1.
 Warning -- assumption of classical behavior for rotation
           may cause significant error
 Rotational temperatures (Kelvin)      0.15175     0.05977     0.04288
 Rotational constants (GHZ):           3.16197     1.24534     0.89346
 Zero-point vibrational energy     391223.5 (Joules/Mol)
                                   93.50467 (Kcal/Mol)
 Warning -- explicit consideration of   9 degrees of freedom as
           vibrations may cause significant error
 Vibrational temperatures:    152.91   238.22   496.51   527.22   652.27
          (Kelvin)            663.62   746.24   752.61   891.35   909.77
                              962.28  1089.93  1102.33  1135.93  1154.94
                             1163.67  1250.53  1310.89  1336.53  1364.43
                             1365.95  1381.13  1506.29  1518.44  1667.71
                             1695.69  1695.99  1703.66  1786.17  1822.70
                             1859.71  2042.99  2111.38  2126.87  2170.00
                             2177.10  2257.18  2423.75  2464.85  2487.44
                             4721.72  4724.14  4727.45  4732.29  4748.76
                             4750.78  4766.14  4768.13
 
 Zero-point correction=                           0.149009 (Hartree/Particle)
 Thermal correction to Energy=                    0.156162
 Thermal correction to Enthalpy=                  0.157106
 Thermal correction to Gibbs Free Energy=         0.117307
 Sum of electronic and zero-point Energies=           -385.741445
 Sum of electronic and thermal Energies=              -385.734292
 Sum of electronic and thermal Enthalpies=            -385.733347
 Sum of electronic and thermal Free Energies=         -385.773146
 
                     E (Thermal)             CV                S
                      KCal/Mol        Cal/Mol-Kelvin    Cal/Mol-Kelvin
 Total                   97.993             29.634             83.764
 Electronic               0.000              0.000              0.000
 Translational            0.889              2.981             40.455
 Rotational               0.889              2.981             28.904
 Vibrational             96.216             23.672             14.405
 Vibration  1             0.605              1.944              3.336
 Vibration  2             0.624              1.885              2.485
 Vibration  3             0.723              1.585              1.189
 Vibration  4             0.739              1.541              1.095
 Vibration  5             0.812              1.353              0.786
 Vibration  6             0.819              1.336              0.763
 Vibration  7             0.874              1.209              0.613
 Vibration  8             0.878              1.199              0.603
 Vibration  9             0.979              0.991              0.417
                       Q            Log10(Q)             Ln(Q)
 Total Bot       0.110263D-53        -53.957572       -124.241901
 Total V=0       0.381724D+15         14.581749         33.575719
 Vib (Bot)       0.418341D-67        -67.378469       -155.144659
 Vib (Bot)  1    0.192863D+01          0.285250          0.656812
 Vib (Bot)  2    0.121887D+01          0.085957          0.197923
 Vib (Bot)  3    0.536329D+00         -0.270568         -0.623007
 Vib (Bot)  4    0.498040D+00         -0.302736         -0.697075
 Vib (Bot)  5    0.377233D+00         -0.423391         -0.974894
 Vib (Bot)  6    0.368384D+00         -0.433700         -0.998630
 Vib (Bot)  7    0.311590D+00         -0.506417         -1.166068
 Vib (Bot)  8    0.307700D+00         -0.511872         -1.178629
 Vib (Bot)  9    0.236175D+00         -0.626766         -1.443183
 Vib (V=0)       0.144828D+02          1.160852          2.672960
 Vib (V=0)  1    0.249239D+01          0.396616          0.913243
 Vib (V=0)  2    0.181744D+01          0.259459          0.597427
 Vib (V=0)  3    0.123325D+01          0.091050          0.209649
 Vib (V=0)  4    0.120572D+01          0.081247          0.187079
 Vib (V=0)  5    0.112634D+01          0.051670          0.118975
 Vib (V=0)  6    0.112105D+01          0.049626          0.114268
 Vib (V=0)  7    0.108914D+01          0.037084          0.085390
 Vib (V=0)  8    0.108709D+01          0.036267          0.083508
 Vib (V=0)  9    0.105297D+01          0.022417          0.051617
 Electronic      0.100000D+01          0.000000          0.000000
 Translational   0.569624D+08          7.755589         17.857903
 Rotational      0.462710D+06          5.665309         13.044856
 ***** Axes restored to original set *****
 -------------------------------------------------------------------
 Center     Atomic                   Forces (Hartrees/Bohr)
 Number     Number              X              Y              Z
 -------------------------------------------------------------------
    1          6          -0.011269963    0.003666822    0.000002493
    2          6           0.010465119    0.003902838   -0.000002708
    3          6           0.006916522   -0.011784635   -0.000001181
    4          6          -0.006891689    0.011798661    0.000002621
    5          6           0.008524692    0.007217355   -0.000000880
    6          6          -0.002316520   -0.011623106   -0.000000821
    7          1           0.003604339   -0.007455281   -0.000001981
    8          1          -0.004272710   -0.007013174   -0.000000396
    9          1           0.004739486   -0.006791075   -0.000001374
   10          6          -0.008547813   -0.007230620    0.000000355
   11          6          -0.010489239   -0.003916276    0.000000677
   12          1          -0.003603123    0.007456325    0.000001758
   13          1          -0.008207233   -0.000294103    0.000000829
   14          6           0.011292880   -0.003680203   -0.000003624
   15          6           0.002314959    0.011648452    0.000002590
   16          1          -0.004739241    0.006791778    0.000002066
   17          1           0.004272036    0.007013164    0.000000729
   18          1           0.008207497    0.000293078   -0.000001150
 -------------------------------------------------------------------
 Cartesian Forces:  Max     0.011798661 RMS     0.006056478

 GradGradGradGradGradGradGradGradGradGradGradGradGradGradGradGradGradGrad
 Berny optimization.
 Internal  Forces:  Max     0.017443033 RMS     0.004776369
 Search for a local minimum.
 Step number   1 out of a maximum of   2
 All quantities printed in internal units (Hartrees-Bohrs-Radians)
 Second derivative matrix not updated -- analytic derivatives used.
     Eigenvalues ---    0.01508   0.01517   0.01721   0.01780   0.01924
     Eigenvalues ---    0.02099   0.02240   0.02367   0.02415   0.02478
     Eigenvalues ---    0.02541   0.02761   0.02796   0.02869   0.02894
     Eigenvalues ---    0.11249   0.11386   0.11821   0.11887   0.12555
     Eigenvalues ---    0.12694   0.12702   0.13034   0.18453   0.18762
     Eigenvalues ---    0.19544   0.20135   0.20727   0.20741   0.28241
     Eigenvalues ---    0.30581   0.36665   0.38077   0.38204   0.38232
     Eigenvalues ---    0.38383   0.38448   0.38547   0.38575   0.38748
     Eigenvalues ---    0.40575   0.40616   0.41670   0.45662   0.54029
     Eigenvalues ---    0.54198   0.55345   0.559661000.000001000.00000
     Eigenvalues --- 1000.000001000.000001000.000001000.000001000.00000
     Eigenvalues --- 1000.000001000.000001000.000001000.000001000.00000
     Eigenvalues --- 1000.000001000.000001000.000001000.000001000.00000
     Eigenvalues --- 1000.000001000.000001000.000001000.000001000.00000
     Eigenvalues --- 1000.000001000.000001000.000001000.000001000.00000
     Eigenvalues --- 1000.000001000.000001000.000001000.000001000.00000
     Eigenvalues --- 1000.000001000.000001000.000001000.000001000.00000
     Eigenvalues --- 1000.000001000.000001000.000001000.000001000.00000
     Eigenvalues --- 1000.000001000.000001000.00000
 Angle between quadratic step and forces=  14.00 degrees.
 Linear search not attempted -- first point.
 Iteration  1 RMS(Cart)=  0.01549049 RMS(Int)=  0.00000686
 Iteration  2 RMS(Cart)=  0.00001053 RMS(Int)=  0.00000113
 Iteration  3 RMS(Cart)=  0.00000000 RMS(Int)=  0.00000113
 Variable       Old X    -DE/DX   Delta X   Delta X   Delta X     New X
                                 (Linear)    (Quad)   (Total)
    R1        2.56690   0.01743   0.00000   0.03262   0.03262   2.59951
    R2        2.67674   0.00373   0.00000   0.00127   0.00127   2.67801
    R3        2.03222   0.00821   0.00000   0.02073   0.02073   2.05295
    R4        2.68415   0.00373   0.00000   0.00169   0.00169   2.68584
    R5        2.03364   0.00826   0.00000   0.02109   0.02109   2.05473
    R6        2.66331   0.01661   0.00000   0.04290   0.04291   2.70622
    R7        2.68421   0.00371   0.00000   0.00163   0.00164   2.68585
    R8        2.68415   0.00373   0.00000   0.00169   0.00169   2.68584
    R9        2.68421   0.00371   0.00000   0.00163   0.00164   2.68585
   R10        2.56690   0.01743   0.00000   0.03262   0.03262   2.59951
   R11        2.03364   0.00826   0.00000   0.02109   0.02109   2.05473
   R12        2.03222   0.00821   0.00000   0.02073   0.02073   2.05295
   R13        2.03364   0.00826   0.00000   0.02109   0.02109   2.05473
   R14        2.56685   0.01744   0.00000   0.03265   0.03265   2.59951
   R15        2.56685   0.01744   0.00000   0.03266   0.03266   2.59951
   R16        2.03364   0.00826   0.00000   0.02109   0.02109   2.05473
   R17        2.67680   0.00372   0.00000   0.00121   0.00121   2.67801
   R18        2.03222   0.00821   0.00000   0.02073   0.02073   2.05295
   R19        2.03222   0.00821   0.00000   0.02073   0.02073   2.05295
    A1        2.09881  -0.00024   0.00000   0.00033   0.00032   2.09914
    A2        2.09854   0.00030   0.00000  -0.00212  -0.00212   2.09642
    A3        2.08584  -0.00006   0.00000   0.00180   0.00180   2.08763
    A4        2.10800   0.00024   0.00000   0.00158   0.00158   2.10958
    A5        2.10091   0.00053   0.00000   0.00104   0.00104   2.10195
    A6        2.07427  -0.00077   0.00000  -0.00262  -0.00262   2.07165
    A7        2.07637   0.00000   0.00000  -0.00191  -0.00190   2.07447
    A8        2.13045   0.00000   0.00000   0.00381   0.00380   2.13425
    A9        2.07637   0.00000   0.00000  -0.00190  -0.00190   2.07447
   A10        2.07637   0.00000   0.00000  -0.00191  -0.00190   2.07447
   A11        2.07636   0.00000   0.00000  -0.00190  -0.00189   2.07447
   A12        2.13045   0.00000   0.00000   0.00380   0.00380   2.13425
   A13        2.10800   0.00024   0.00000   0.00158   0.00158   2.10958
   A14        2.07427  -0.00077   0.00000  -0.00262  -0.00262   2.07165
   A15        2.10092   0.00053   0.00000   0.00104   0.00104   2.10195
   A16        2.09881  -0.00024   0.00000   0.00033   0.00033   2.09914
   A17        2.08584  -0.00006   0.00000   0.00180   0.00180   2.08763
   A18        2.09854   0.00030   0.00000  -0.00213  -0.00212   2.09642
   A19        2.07424  -0.00077   0.00000  -0.00259  -0.00259   2.07165
   A20        2.10801   0.00024   0.00000   0.00157   0.00158   2.10958
   A21        2.10094   0.00053   0.00000   0.00101   0.00101   2.10195
   A22        2.10801   0.00024   0.00000   0.00157   0.00157   2.10958
   A23        2.07425  -0.00077   0.00000  -0.00260  -0.00260   2.07165
   A24        2.10093   0.00053   0.00000   0.00102   0.00102   2.10195
   A25        2.09882  -0.00024   0.00000   0.00032   0.00032   2.09914
   A26        2.09855   0.00030   0.00000  -0.00214  -0.00214   2.09642
   A27        2.08582  -0.00005   0.00000   0.00181   0.00182   2.08763
   A28        2.09881  -0.00024   0.00000   0.00033   0.00033   2.09914
   A29        2.09856   0.00030   0.00000  -0.00215  -0.00214   2.09642
   A30        2.08581  -0.00005   0.00000   0.00182   0.00182   2.08763
    D1       -0.00002   0.00000   0.00000   0.00002   0.00002   0.00000
    D2       -3.14159   0.00000   0.00000   0.00000   0.00000  -3.14159
    D3        3.14158   0.00000   0.00000   0.00001   0.00001   3.14159
    D4        0.00001   0.00000   0.00000  -0.00001  -0.00001   0.00000
    D5        0.00000   0.00000   0.00000   0.00000   0.00000   0.00000
    D6       -3.14158   0.00000   0.00000  -0.00001  -0.00001  -3.14159
[...]
 ,0.000059,-0.132354,0.032315,0.1118907,0.0000178,0.1118937,-0.0932671,
 -0.0000367,0.0000183,-0.0000392,0.0530459,0.0323095,0.1119012,0.000019
 1,0.1118961,-0.0932571,-0.0000361,0.0000209,-0.0000332,0.0530462,0.034
 801,-0.0511096,-0.00003,-0.1309661,0.0749154,0.0000496,-0.0000382,0.00
 00337,-0.1323542,0.124303,-0.0812217,-0.0000417,-0.0402969,-0.0683855,
 0.0000127,-0.0000423,0.0000176,-0.1174475,0.0140161,0.0414325,0.000019
 2,0.0962969,-0.0750121,-0.0000399,0.0000258,-0.0000312,0.1086159,0.009
 8295,-0.0815952,0.0000009,-0.087894,-0.0840036,-0.0000182,0.0000008,-0
 .000017,0.1146617,0.0050886,0.1013058,0.0000279,0.0464478,-0.0660806,-
 0.0000306,0.0000227,-0.000043,0.1086165,0.034823,-0.0510919,-0.0000298
 ,-0.1309552,0.0749167,0.000047,-0.0000406,0.0000344,-0.1323523,-0.0123
 772,-0.1044713,-0.0000297,-0.0246075,0.1221147,0.0000404,-0.0000152,0.
 0000502,-0.1323526,0.014016,0.0414385,0.0000187,0.0962964,-0.0750082,-
 0.0000404,0.0000245,-0.0000315,0.1086167,-0.1338634,-0.0072641,0.00003
 03,-0.0009658,0.0596907,-0.0000082,0.0000347,-0.0000067,0.1146618,-0.0
 741108,0.071028,0.0000048,0.0300953,0.1300291,0.0000344,-0.0000101,0.0
 000232,-0.1174493,0.124298,-0.0812366,-0.0000449,-0.0403043,-0.0683827
 ,0.0000138,-0.0000321,0.0000236,-0.1174484,0.0050848,0.1013061,0.00002
 83,0.0464446,-0.0660824,-0.0000321,0.0000185,-0.0000386,0.1086161,0.00
 98242,-0.0815966,0.0000012,-0.0878928,-0.0840029,-0.0000191,0.0000055,
 -0.0000155,0.1146625,-0.1338629,-0.0072651,0.0000324,-0.000971,0.05968
 74,-0.0000083,0.0000293,-0.00001,0.1146628\Polar=138.7406361,18.184625
 3,118.3329924,-0.0111193,0.0104647,32.4745654\PG=C01 [X(C10H8)]\NImag=
 0\\0.78575280,0.05795333,0.71088568,-0.00007393,0.00007942,0.12179970,
 -0.44295696,-0.03170460,0.00004283,0.79910830,0.02818470,-0.12699083,-
 0.00001437,-0.05761338,0.69880524,0.00005200,-0.00000661,-0.05429583,-
 0.00009468,0.00009064,0.12517565,-0.04662428,-0.02193941,0.00000391,-0
 .14317948,-0.08247928,-0.00000126,0.69827585,-0.05821680,0.02638832,0.
 00001045,-0.05141974,-0.25999521,-0.00002019,0.00478021,0.69297193,-0.
 00000176,0.00000548,0.00677006,0.00000352,-0.00001612,-0.06642965,-0.0
 0007196,0.00007735,0.15904142,-0.04265717,0.02585967,0.00000823,0.0535
 5405,0.01371428,-0.00000412,-0.18157691,0.07353380,0.00002581,0.698322
 69,0.00762766,-0.00253200,-0.00000016,-0.00260734,-0.03992991,-0.00000
 676,0.07354025,-0.26410298,-0.00003857,0.00475502,0.69292445,0.0000057
 4,-0.00000260,-0.00758034,-0.00000646,-0.00000842,0.00707193,0.0000254
 8,-0.00003893,-0.07201044,-0.00007030,0.00007975,0.15904143,0.05820119
 ,-0.01904106,-0.00000912,-0.04213999,-0.02050898,0.00000165,-0.0128041
 1,0.05094928,0.00001002,-0.28916435,-0.00056395,0.00002957,0.67364989,
 0.02425413,-0.05930412,-0.00001333,-0.02732699,-0.01529815,0.00000222,
 0.03462770,0.02642826,-0.00000176,0.03049557,-0.11401039,-0.00001099,0
 .01278413,0.82426297,-0.00000270,-0.00000761,0.00848974,0.00000050,0.0
 0000125,-0.00616912,0.00000794,-0.00000380,0.00707190,0.00003393,-0.00
 000680,-0.06642957,-0.00006850,0.00010407,0.12517562,-0.17158944,0.107
 44555,0.00002974,-0.02894137,0.02985649,0.00000925,0.00215050,0.000717
 14,-0.00000117,-0.02530247,-0.03390356,-0.00000116,-0.20415485,-0.1657
 0203,-0.00000631,0.77827850,0.04333049,-0.25619289,-0.00003401,0.07315
 169,0.02783850,-0.00000650,-0.01751486,-0.04733950,-0.00000343,-0.0701
 8105,0.00506656,0.00000876,-0.10581277,-0.36579323,-0.00003441,0.06214
 882,0.71836098,0.00002054,-0.00004247,-0.06098151,0.00001543,-0.000000
 80,0.00848971,-0.00000384,-0.00000609,-0.00758035,-0.00000629,0.000004
 20,0.00677001,0.00000265,-0.00002677,-0.05429572,-0.00007410,0.0000820
 1,0.12179958,0.00012290,-0.00032817,-0.00000009,0.00167474,0.00205317,
 -0.00000030,-0.01228473,0.02900518,0.00000627,-0.00536029,-0.00235930,
 0.00000100,-0.00014233,0.00178536,0.00000032,0.00011395,0.00004064,-0.
 00000003,0.13949113,0.00044074,0.00002635,-0.00000003,-0.00139616,0.00
 079259,0.00000073,-0.00140029,0.00306483,0.00000020,-0.00064169,0.0011
 7485,-0.00000042,-0.00043705,-0.00007250,0.00000001,-0.00000312,0.0003
 2532,0.00000007,-0.14101907,0.29970908,0.,0.00000007,-0.00008809,-0.00
 000081,0.00000029,-0.00302713,0.00000174,-0.00000389,0.00288425,0.0000
 0131,-0.00000025,0.00481591,0.00000001,-0.00000029,0.00023839,-0.00000
 003,0.00000004,-0.00014845,-0.00003591,0.00005884,0.02182187,-0.134606
 12,-0.13146035,-0.00000678,-0.01203749,-0.03105257,-0.00000253,-0.0054
 0545,0.00222964,0.00000208,-0.00092718,0.00040616,0.00000016,-0.001540
 51,0.00312938,0.00000127,0.01249929,0.01589538,0.00000104,-0.00002965,
 0.00004685,0.00000003,0.13974641,-0.13234496,-0.28632372,-0.00002062,0
 .00198581,0.00392066,-0.00000016,0.00072809,0.00149096,-0.00000123,0.0
 0089342,0.00040485,0.,0.00442789,-0.00301912,-0.00000176,-0.01654913,-
 0.01903360,-0.00000102,-0.00002508,0.00002108,-0.00000002,0.14195885,0
 .30151248,-0.00000687,-0.00002064,-0.03309263,0.00000224,0.00000392,0.
 00319828,0.00000193,-0.00000142,0.00924564,0.00000015,0.00000009,-0.00
 029130,0.00000155,-0.00000155,0.00509699,-0.00000368,-0.00000521,0.002
 11094,0.00000002,-0.00000003,0.00016867,0.00000621,0.00002328,0.022135
 40,-0.01226680,0.03101967,0.00000665,-0.13470110,0.13076927,0.00003272
 ,0.01117020,-0.01456111,-0.00000324,-0.00167056,-0.00271200,0.00000047
 ,-0.00057605,-0.00075998,-0.00000003,-0.00544154,-0.00207160,0.0000014
 4,-0.00010986,0.00050088,0.00000011,0.00114802,-0.00028949,-0.00000085
 ,0.14097604,-0.00222477,0.00399005,0.00000030,0.13197697,-0.28271818,-
 0.00005410,0.01584444,-0.02038950,-0.00000557,-0.00442951,-0.00251469,
 -0.00000043,-0.00085890,0.00012321,0.00000011,-0.00040853,0.00160689,-
 0.00000094,-0.00130322,0.00034031,0.00000019,0.00029789,0.00102119,0.0
 0000087,-0.14185258,0.29822580,0.00000146,-0.00000373,0.00368413,0.000
 03323,-0.00005439,-0.03295973,0.00000110,-0.00000134,0.00288426,0.0000
 0030,-0.00000067,0.00481676,0.00000003,0.00000008,0.00001349,0.0000016
 0,-0.00000089,0.00838002,-0.00000016,-0.00000005,0.00020618,-0.0000007
 3,0.00000095,-0.00513088,-0.00003657,0.00005937,0.02182167,0.02241193,
 -0.01115408,-0.00000373,-0.04530712,-0.02567718,0.00000273,-0.28910100
 ,-0.00055964,0.00002984,-0.01280270,0.05094097,0.00001043,-0.01070925,
 -0.00448143,0.00000129,-0.00191847,0.01777748,0.00000281,-0.13513862,0
 .13101483,0.00003248,0.00032266,-0.00000542,0.00000005,0.00128408,0.00
 227239,-0.00000021,0.67359180,0.00725712,-0.01048009,-0.00000325,-0.04
 655567,-0.00477636,0.00000495,0.03049424,-0.11400997,-0.00001093,0.034
 62735,0.02642525,-0.00000163,-0.00448151,-0.00905608,-0.00000157,-0.00
 109379,0.00763531,0.00000132,0.13222256,-0.28227895,-0.00005311,-0.001
 61234,-0.00007216,0.00000012,-0.00117707,0.00118315,0.00000078,0.01282
 056,0.82432070,-0.00000113,-0.00000078,0.00560388,-0.00000013,0.000002
 10,0.00385001,0.00003437,-0.00000676,-0.06643408,0.00000776,-0.0000039
 5,0.00707117,0.00000137,-0.00000156,0.00509635,-0.00000003,-0.00000111
 ,-0.00035350,0.00003264,-0.00005327,-0.03296017,-0.00000021,-0.0000000
 8,0.00041455,-0.00000074,0.00000032,-0.00302772,-0.00007052,0.00010139
 ,0.12517496,0.01246744,-0.00916605,-0.00000300,-0.01327693,-0.00304072
 ,0.00000203,0.05354849,-0.00260395,-0.00000672,-0.14316383,-0.05139572
 ,0.00000246,-0.04530757,-0.04655520,-0.00000078,-0.00426672,0.02222719
 ,0.00000461,-0.00073500,-0.00067063,0.00000008,0.00035984,-0.00016763,
 -0.00000019,0.00048611,0.00143268,0.00000017,-0.04213470,-0.02732502,0
 .00000072,0.79917049,0.00970521,-0.00675051,-0.00000219,-0.00304057,-0
 .00648843,-0.00000137,0.01370952,-0.03992626,-0.00000885,-0.08244915,-
 0.25994756,-0.00001844,-0.02567658,-0.00477546,0.00000190,0.00381595,0
 .01619850,0.00000107,-0.00076966,0.00028222,0.00000021,0.00003227,0.00
 001174,0.00000015,-0.00078972,-0.00070097,0.,-0.02050484,-0.01529597,0
 .00000123,-0.05764375,0.69874796,-0.00000013,0.00000018,-0.00035350,0.
 00000188,-0.00000137,0.00509632,-0.00000400,-0.00000656,0.00707127,-0.
 00000237,-0.00002250,-0.06643400,0.00000243,0.00000479,0.00384992,0.00
 000188,-0.00000121,0.00560388,-0.00000002,0.00000013,0.00001349,-0.000
 00017,0.00000017,-0.00101346,-0.00000015,-0.00000032,0.00023840,0.0000
 0169,0.00000207,-0.00616844,-0.00009470,0.00009237,0.12517432,-0.00113
 934,-0.00282259,0.00000078,-0.00073510,-0.00076965,-0.00000002,-0.0053
 6023,-0.00235915,0.00000097,-0.01228454,0.02900546,0.00000629,-0.13514
 526,0.13222601,0.00003280,0.01238554,-0.01605771,-0.00000352,-0.000539
 60,0.00000398,0.00000010,0.00047440,-0.00083987,-0.00000014,0.00015775
 ,0.00014786,-0.00000018,-0.00014231,0.00178531,0.00000031,0.00167479,0
 .00205311,-0.00000030,0.13949767,-0.00448566,-0.00269531,-0.00000112,-
 0.00067073,0.00028226,0.00000012,-0.00064166,0.00117498,-0.00000045,-0
 .00140016,0.00306525,0.00000020,0.13101831,-0.28227366,-0.00005397,0.0
 1718671,-0.02066227,-0.00000584,0.00000400,-0.00000896,-0.00000003,0.0
 0089272,-0.00113782,-0.00000033,0.00017830,-0.00002526,0.00000019,-0.0
 0043709,-0.00007253,0.00000002,-0.00139623,0.00079249,0.00000075,-0.14
 102292,0.29970373,0.00000047,-0.00000134,0.00838003,-0.00000006,0.0000
 0016,0.00001349,0.00000128,-0.00000015,0.00481678,0.00000193,-0.000003
 80,0.00288427,0.00003242,-0.00005390,-0.03295981,0.00000154,-0.0000017
 4,0.00368413,0.00000010,-0.00000003,0.00018143,0.00000013,-0.00000013,
 0.00036204,-0.00000018,0.00000019,-0.00143709,-0.00000002,-0.00000029,
 0.00023841,-0.00000084,0.00000030,-0.00302772,-0.00003612,0.00005953,0
 .02182174,-0.01176174,-0.00293577,0.00000135,0.00056005,0.00324922,0.0
 0000108,0.00064048,0.00001378,-0.00000012,0.00110176,-0.00292323,0.000
 00060,-0.01230497,0.00213596,0.00000233,-0.36257443,-0.00442810,0.0000
 4189,0.00000377,0.00002636,0.,0.00086466,0.00024329,-0.00000044,-0.000
 72920,-0.00016450,0.00000011,0.00003733,0.00001334,-0.00000013,-0.0006
 6800,0.00055046,0.00000023,0.00105514,-0.00023737,-0.00000083,0.383939
 96,0.02950877,0.00522738,-0.00000330,0.00195071,-0.00511967,-0.0000017
 9,-0.00047349,-0.00116281,-0.00000006,-0.00142170,-0.00501625,-0.00000
 201,-0.03090235,0.00418826,0.00000416,-0.00354358,-0.05835635,-0.00000
 340,-0.00008407,0.00002992,0.00000001,-0.00063268,0.00108315,0.0000006
 5,0.00156809,0.00006579,-0.00000022,0.00021324,0.00033425,0.00000018,-
 0.00105645,0.00091851,0.00000022,0.00035001,0.00111407,0.00000090,0.00
 493759,0.05731976,0.00000598,0.00000097,0.00211097,0.00000097,-0.00000
 185,0.00509700,-0.00000021,-0.00000018,-0.00029131,0.00000080,-0.00000
 187,0.00924563,-0.00000279,-0.00000011,0.00319825,0.00004231,-0.000003
 33,-0.03309250,0.,0.,0.00003480,-0.00000054,0.00000053,-0.00275691,0.0
 0000036,-0.00000002,0.00036203,-0.00000008,0.00000022,-0.00101346,0.,0
 .00000004,0.00041456,-0.00000073,0.00000098,-0.00513089,-0.00004596,0.
 00000465,0.02213527,-0.01491214,0.00884055,0.00000320,0.01246758,0.009
 70544,-0.00000029,-0.04265139,0.00762417,0.00000582,-0.04662469,-0.058
 20929,-0.00000199,0.02241252,0.00725695,-0.00000097,-0.00042788,-0.019
 49371,-0.00000278,-0.00113937,-0.00448569,0.00000046,-0.00018268,0.000
 09514,0.00000006,0.00029075,-0.00005855,-0.00000009,0.05819583,0.02425
 193,-0.00000281,-0.44303289,0.02818305,0.00005382,0.00012291,0.0004407
 5,0.00000004,-0.00012252,-0.00037339,-0.00000018,0.78581657,0.00884051
 ,-0.00573550,-0.00000195,-0.00916598,-0.00675084,0.00000025,0.02585600
 ,-0.00252945,-0.00000280,-0.02193920,0.02638491,0.00000580,-0.01115430
 ,-0.01048051,-0.00000103,-0.00034265,0.01070283,0.00000160,-0.00282242
 ,-0.00269491,-0.00000126,0.00024496,-0.00004103,-0.00000006,-0.0001023
 3,0.00014853,0.00000007,-0.01903712,-0.05930198,-0.00000788,-0.0317006
 9,-0.12698456,-0.00000658,-0.00032817,0.00002634,0.00000005,-0.0003666
 1,-0.00032313,0.00000012,0.05798183,0.71082510,0.00000331,-0.00000204,
 -0.00016639,-0.00000313,-0.00000227,-0.00035344,0.00000858,-0.00000027
 ,-0.00758058,0.00000380,0.00001069,0.00676973,-0.00000396,-0.00000343,
 0.00560299,0.00000009,0.00000418,0.00036366,0.00000083,-0.00000099,0.0
 0838079,0.00000010,-0.00000006,0.00027037,-0.00000007,0.00000005,-0.00
 014847,-0.00000960,-0.00001340,0.00848962,0.00004517,-0.00001465,-0.05
 428970,-0.00000007,-0.00000004,-0.00008806,-0.00000014,0.00000012,-0.0
 0076565,-0.00007888,0.00008204,0.12179838,-0.00042781,-0.00034270,0.00
 000006,-0.00426713,0.00381624,0.00000188,-0.02530202,-0.03390384,-0.00
 000062,0.00215094,0.00071653,-0.00000116,-0.00191858,-0.00109363,0.000
 00002,-0.00038747,0.00069041,0.00000012,0.01238559,0.01718640,0.000001
 35,-0.00059090,-0.00010380,-0.00000006,0.00009751,-0.00031392,-0.00000
 008,-0.20416787,-0.16573225,-0.00000514,-0.02893994,0.02985687,0.00000
 954,0.00011393,-0.00000310,-0.00000003,0.00007019,0.00010307,0.0000000
 6,-0.17157329,0.10741488,0.00003187,0.77827454,-0.01949371,0.01070277,
 0.00000403,0.02222743,0.01619905,-0.00000144,-0.07017388,0.00506231,0.
 00000915,-0.01751536,-0.04733141,-0.00000375,0.01777781,0.00763528,-0.
 00000099,0.00069042,-0.02026013,-0.00000306,-0.01605797,-0.02066225,-0
 .00000177,-0.00011058,0.00014523,0.00000013,0.00045501,0.00005175,-0.0
 0000007,-0.10584918,-0.36584658,-0.00003234,0.07314598,0.02783384,-0.0
 0000686,0.00004067,0.00032535,0.00000008,-0.00004675,-0.00029390,-0.00
 000012,0.04330504,-0.25614494,-0.00003668,0.06221615,0.71836574,-0.000
 00283,0.00000159,0.00036367,0.00000469,0.00000113,0.00560295,-0.000006
 34,0.00000423,0.00676969,-0.00000394,-0.00000613,-0.00758053,0.0000029
 3,0.00000139,-0.00035343,0.00000016,-0.00000314,-0.00016640,-0.0000035
 7,-0.00000590,0.00368467,-0.00000003,0.00000015,-0.00076565,0.00000004
 ,0.00000005,-0.00008806,0.00000388,-0.00002496,-0.05428982,0.00001591,
 -0.00000090,0.00848960,-0.00000003,0.00000007,-0.00014847,0.00000002,-
 0.00000010,0.00027037,0.00002213,-0.00004540,-0.06098599,-0.00007798,0
 .00008335,0.12179833,0.00029072,-0.00010231,-0.00000007,0.00048619,-0.
 00078973,-0.00000017,-0.00167079,-0.00271201,0.00000044,0.01116987,-0.
 01456130,-0.00000324,0.00128426,-0.00117687,-0.00000073,0.00009751,0.0
 0045498,0.00000005,0.00015777,0.00017833,-0.00000017,-0.00000097,0.000
 02902,0.,-0.00013262,-0.00022439,0.,-0.00057605,-0.00075986,-0.0000000
 4,-0.13470337,0.13077120,0.00003189,-0.00010988,0.00050092,0.00000011,
 0.00001822,0.00001999,0.00000002,-0.01226724,0.03101998,0.00000672,-0.
 00544121,-0.00207177,0.00000140,0.14097879,-0.00005855,0.00014855,0.00
 000005,0.00143269,-0.00070100,-0.00000035,-0.00442959,-0.00251467,-0.0
 0000046,0.01584407,-0.02038918,-0.00000552,0.00227227,0.00118313,0.000
 00032,-0.00031392,0.00005173,0.00000006,0.00014785,-0.00002526,0.00000
 019,-0.00008141,0.00003466,0.00000001,-0.00022437,-0.00041593,-0.00000
 005,-0.00085886,0.00012326,0.00000014,0.13197965,-0.28271647,-0.000053
 30,-0.00130319,0.00034034,0.00000019,-0.00005195,-0.00002679,-0.000000
 02,-0.00222478,0.00398997,0.00000035,-0.00040851,0.00160693,-0.0000009
 3,-0.14185481,0.29822368,-0.00000007,0.00000006,-0.00014846,0.00000020
 ,-0.00000005,0.00023840,0.00000016,-0.00000080,0.00481591,0.00000129,-
 0.00000170,0.00288413,-0.00000019,0.00000080,-0.00302710,-0.00000008,-
 0.00000006,-0.00008809,-0.00000019,0.00000018,-0.00143711,0.,0.,0.0000
 3481,0.,-0.00000007,0.00018143,-0.00000010,0.00000009,0.00001349,0.000
 03196,-0.00005291,-0.03295985,-0.00000015,-0.00000004,0.00020617,0.000
 00001,-0.00000003,0.00016867,0.00000187,-0.00000396,0.00368483,0.00000
 177,-0.00000071,0.00838081,-0.00003582,0.00005849,0.02182152,-0.000182
 68,0.00024492,0.00000010,0.00035984,0.00003227,-0.00000018,-0.00092714
 ,0.00040604,0.00000015,-0.00540507,0.00222990,0.00000225,0.00032262,-0
 .00161240,-0.00000024,-0.00059086,-0.00011057,-0.00000004,0.00047442,0
 .00089272,0.00000012,0.00000138,-0.00002409,0.,-0.00000097,-0.00008142
 ,0.,-0.00154074,0.00312936,0.00000138,-0.01203812,-0.03105263,-0.00000
 261,-0.00002965,0.00004686,0.00000003,-0.00009572,-0.00016007,-0.00000
 002,-0.13461044,-0.13146274,-0.00000598,0.01249904,0.01589520,0.000001
 00,0.00114802,0.00029787,-0.00000079,0.13975145,0.00009517,-0.00004103
 ,-0.00000006,-0.00016763,0.00001174,0.00000018,0.00089336,0.00040491,0
 .,0.00072822,0.00149095,-0.00000127,-0.00000548,-0.00007217,-0.0000000
 7,-0.00010380,0.00014526,0.00000015,-0.00083987,-0.00113782,-0.0000001
 3,-0.00002409,-0.00001940,0.,0.00002903,0.00003466,0.,0.00442797,-0.00
 301930,-0.00000183,0.00198592,0.00392083,-0.00000014,-0.00002508,0.000
 02108,-0.00000002,-0.00001204,0.00000086,0.,-0.13234791,-0.28631814,-0
 .00002021,-0.01654905,-0.01903319,-0.00000093,-0.00028947,0.00102127,0
 .00000096,0.14196148,0.30150639,0.00000007,-0.00000005,0.00027036,-0.0
 0000019,0.00000014,-0.00101335,0.00000022,0.00000008,-0.00029124,0.000
 00193,-0.00000142,0.00924644,0.00000002,0.00000013,0.00041448,-0.00000
 006,0.00000014,-0.00076577,-0.00000016,-0.00000037,0.00036203,0.,0.,0.
 00004058,0.,0.00000002,0.00003481,0.00000171,-0.00000164,0.00509590,0.
 00000224,0.00000411,0.00319895,0.00000002,-0.00000003,0.00016875,0.,0.
 00000002,-0.00002742,-0.00000600,-0.00001984,-0.03309281,-0.00000397,-
 0.00000564,0.00211065,-0.00000083,0.00000085,-0.00513157,0.00000541,0.
 00002282,0.02213544,-0.00012249,-0.00036661,-0.00000014,-0.00066807,0.
 00055041,0.00000022,0.00110202,-0.00292300,0.00000067,0.00064045,0.000
 01376,-0.00000013,0.00003733,0.00001333,-0.00000013,0.00007019,-0.0000
 4672,0.00000002,0.00105516,-0.00023740,-0.00000086,-0.00009571,-0.0000
 1204,0.,0.00001823,-0.00005194,0.00000001,-0.01230480,0.00213574,0.000
 00235,0.00055990,0.00324926,0.00000109,0.00000377,0.00002637,0.,-0.000
 03498,-0.00000369,0.,-0.01176162,-0.00293595,0.00000135,-0.36257553,-0
 .00443451,0.00004255,-0.00072921,-0.00016449,0.00000012,0.00086461,0.0
 0024329,-0.00000044,0.38394076,-0.00037337,-0.00032310,0.00000012,-0.0
 0105651,0.00091852,0.00000020,-0.00142136,-0.00501612,-0.00000195,-0.0
 0047358,-0.00116269,-0.00000007,0.00021324,0.00033425,0.00000019,0.000
 10303,-0.00029390,-0.00000010,0.00035006,0.00111409,0.00000091,-0.0001
 6007,0.00000086,0.00000002,0.00002000,-0.00002680,-0.00000003,-0.03090
 261,0.00418805,0.00000420,0.00195064,-0.00511991,-0.00000185,-0.000084
 08,0.00002992,0.,-0.00000369,0.00001696,0.,0.02950847,0.00522733,-0.00
 000338,-0.00354977,-0.05835584,-0.00000356,0.00156810,0.00006577,-0.00
 000025,-0.00063272,0.00108311,0.00000068,0.00494420,0.05731950,-0.0000
 0014,0.00000011,-0.00076578,-0.00000003,0.00000002,0.00041449,0.000000
 90,-0.00000173,0.00924647,-0.00000022,-0.00000014,-0.00029123,-0.00000
 010,0.00000021,-0.00101336,0.00000004,-0.00000009,0.00027036,-0.000000
 75,0.00000093,-0.00513154,-0.00000002,0.,-0.00002742,0.00000002,-0.000
 00002,0.00016874,-0.00000263,-0.00000015,0.00319884,0.00000087,-0.0000
 0207,0.00509595,-0.00000001,0.,0.00003481,0.,0.,0.00004059,0.00000658,
 0.00000084,0.00211072,0.00004238,-0.00000331,-0.03309242,0.00000041,-0
 .00000001,0.00036201,-0.00000058,0.00000054,-0.00275623,-0.00004671,0.
 00000486,0.02213502\\0.01126996,-0.00366682,-0.00000249,-0.01046512,-0
 .00390284,0.00000271,-0.00691652,0.01178464,0.00000118,0.00689169,-0.0
 1179866,-0.00000262,-0.00852469,-0.00721735,0.00000088,0.00231652,0.01
 162311,0.00000082,-0.00360434,0.00745528,0.00000198,0.00427271,0.00701
 317,0.00000040,-0.00473949,0.00679107,0.00000137,0.00854781,0.00723062
 ,-0.00000035,0.01048924,0.00391628,-0.00000068,0.00360312,-0.00745632,
 -0.00000176,0.00820723,0.00029410,-0.00000083,-0.01129288,0.00368020,0
 .00000362,-0.00231496,-0.01164845,-0.00000259,0.00473924,-0.00679178,-
 0.00000207,-0.00427204,-0.00701316,-0.00000073,-0.00820750,-0.00029308
 ,0.00000115\\\@


    THE DOUGHNUT CREED
 AS YOU RAMBLE ON THROUGH LIFE, BROTHER
 WHATEVER BE YOUR GOAL
 KEEP YOUR EYE UPON THE DOUGHNUT
 AND NOT UPON THE HOLE.
 Job cpu time:  0 days  0 hours 22 minutes 37.2 seconds.
 File lengths (MBytes):  RWF=     65 Int=      0 D2E=      0 Chk=      6 Scr=      1
 Normal termination of Gaussian 03 at Sun Aug 31 01:44:11 2014.
