 Entering Gaussian System, Link 0=/mit/gaussian_v03-D01/distrib/i386_rhel4/g03/g03.real
 Input=/afs/athena.mit.edu/user/d/t/dtw/Desktop/LearnToGaussianFiles/Naph2.com
 Output=/afs/athena.mit.edu/user/d/t/dtw/Desktop/LearnToGaussianFiles/Naph2.log
 Initial command:
 /mit/gaussian_v03-D01/distrib/amd64_ubuntu1204/g03/l1.exe /var/tmp/Gau-53310.inp -scrdir=/var/tmp/
 Entering Link 1 = /mit/gaussian_v03-D01/distrib/amd64_ubuntu1204/g03/l1.exe PID=     53312.
  
 Copyright (c) 1988,1990,1992,1993,1995,1998,2003,2004, Gaussian, Inc.
                  All Rights Reserved.
  
 This is the Gaussian(R) 03 program.  It is based on the
 the Gaussian(R) 98 system (copyright 1998, Gaussian, Inc.),
 the Gaussian(R) 94 system (copyright 1995, Gaussian, Inc.),
 the Gaussian 92(TM) system (copyright 1992, Gaussian, Inc.),
 the Gaussian 90(TM) system (copyright 1990, Gaussian, Inc.),
 the Gaussian 88(TM) system (copyright 1988, Gaussian, Inc.),
 the Gaussian 86(TM) system (copyright 1986, Carnegie Mellon
 University), and the Gaussian 82(TM) system (copyright 1983,
 Carnegie Mellon University). Gaussian is a federally registered
 trademark of Gaussian, Inc.
  
 This software contains proprietary and confidential information,
 including trade secrets, belonging to Gaussian, Inc.
  
 This software is provided under written license and may be
 used, copied, transmitted, or stored only in accord with that
 written license.
  
 The following legend is applicable only to US Government
 contracts under FAR:
  
                    RESTRICTED RIGHTS LEGEND
  
 Use, reproduction and disclosure by the US Government is
 subject to restrictions as set forth in subparagraphs (a)
 and (c) of the Commercial Computer Software - Restricted
 Rights clause in FAR 52.227-19.
  
 Gaussian, Inc.
 340 Quinnipiac St., Bldg. 40, Wallingford CT 06492
  
  
 ---------------------------------------------------------------
 Warning -- This program may not be used in any manner that
 competes with the business of Gaussian, Inc. or will provide
 assistance to any competitor of Gaussian, Inc.  The licensee
 of this program is prohibited from giving any competitor of
 Gaussian, Inc. access to this program.  By using this program,
 the user acknowledges that Gaussian, Inc. is engaged in the
 business of creating and licensing software in the field of
 computational chemistry and represents and warrants to the
 licensee that it is not a competitor of Gaussian, Inc. and that
 it will not use this program in any manner prohibited above.
 ---------------------------------------------------------------
  

 Cite this work as:
 Gaussian 03, Revision D.01,
 M. J. Frisch, G. W. Trucks, H. B. Schlegel, G. E. Scuseria, 
 M. A. Robb, J. R. Cheeseman, J. A. Montgomery, Jr., T. Vreven, 
 K. N. Kudin, J. C. Burant, J. M. Millam, S. S. Iyengar, J. Tomasi, 
 V. Barone, B. Mennucci, M. Cossi, G. Scalmani, N. Rega, 
 G. A. Petersson, H. Nakatsuji, M. Hada, M. Ehara, K. Toyota, 
 R. Fukuda, J. Hasegawa, M. Ishida, T. Nakajima, Y. Honda, O. Kitao, 
 H. Nakai, M. Klene, X. Li, J. E. Knox, H. P. Hratchian, J. B. Cross, 
 V. Bakken, C. Adamo, J. Jaramillo, R. Gomperts, R. E. Stratmann, 
 O. Yazyev, A. J. Austin, R. Cammi, C. Pomelli, J. W. Ochterski, 
 P. Y. Ayala, K. Morokuma, G. A. Voth, P. Salvador, J. J. Dannenberg, 
 V. G. Zakrzewski, S. Dapprich, A. D. Daniels, M. C. Strain, 
 O. Farkas, D. K. Malick, A. D. Rabuck, K. Raghavachari, 
 J. B. Foresman, J. V. Ortiz, Q. Cui, A. G. Baboul, S. Clifford, 
 J. Cioslowski, B. B. Stefanov, G. Liu, A. Liashenko, P. Piskorz, 
 I. Komaromi, R. L. Martin, D. J. Fox, T. Keith, M. A. Al-Laham, 
 C. Y. Peng, A. Nanayakkara, M. Challacombe, P. M. W. Gill, 
 B. Johnson, W. Chen, M. W. Wong, C. Gonzalez, and J. A. Pople, 
 Gaussian, Inc., Wallingford CT, 2004.
 
 ******************************************
 Gaussian 03:  IA32L-G03RevD.01 13-Oct-2005
                31-Aug-2014 
 ******************************************
 %chk=Naph2.chk
 -------------------------------------------------
 # opt freq=noraman rhf/6-31g(d) geom=connectivity
 -------------------------------------------------
 1/18=20,38=1,57=2/1,3;
 2/9=110,17=6,18=5,40=1/2;
 3/5=1,6=6,7=1,11=1,16=1,25=1,30=1/1,2,3;
 4/7=1/1;
 5/5=2,38=5/2;
 6/7=2,8=2,9=2,10=2,28=1/1;
 7//1,2,3,16;
 1/18=20/3(3);
 2/9=110/2;
 6/7=2,8=2,9=2,10=2,19=2,28=1/1;
 99//99;
 2/9=110/2;
 3/5=1,6=6,7=1,11=1,16=1,25=1,30=1/1,2,3;
 4/5=5,7=1,16=3/1;
 5/5=2,38=5/2;
 7//1,2,3,16;
 1/18=20/3(-5);
 2/9=110/2;
 6/7=2,8=2,9=2,10=2,19=2,28=1/1;
 99/9=1/99;
 -------------------
 Title Card Required
 -------------------
 Symbolic Z-matrix:
 Charge =  0 Multiplicity = 1
 C                    -5.40836  -1.28169   0.00026 
 C                    -4.03556  -1.28169   0.00026 
 C                    -3.31362  -0.05657   0.00026 
 C                    -4.03149   1.1673    0.00063 
 C                    -5.4529    1.13792   0.00079 
 C                    -6.12441  -0.06005   0.0005 
 H                    -1.34455  -0.98154   0.00002 
 H                    -5.96909  -2.22804   0.00018 
 H                    -3.47077  -2.22601   0.00004 
 C                    -1.89189  -0.02703   0. 
 C                    -3.30874   2.39202   0.00075 
 H                    -6.00015   2.09238   0.00087 
 H                    -7.22405  -0.08642   0.0006 
 C                    -1.93588   2.39209   0.00048 
 C                    -1.21987   1.1702    0.00002 
 H                    -3.87319   3.33656   0.00101 
 H                    -1.37519   3.33842   0.0003 
 H                    -0.12024   1.19666  -0.00017 
 

 GradGradGradGradGradGradGradGradGradGradGradGradGradGradGradGradGradGrad
 Berny optimization.
 Initialization pass.
                           ----------------------------
                           !    Initial Parameters    !
                           ! (Angstroms and Degrees)  !
 --------------------------                            --------------------------
 ! Name  Definition              Value          Derivative Info.                !
 --------------------------------------------------------------------------------
 ! R1    R(1,2)                  1.3728         estimate D2E/DX2                !
 ! R2    R(1,6)                  1.416          estimate D2E/DX2                !
 ! R3    R(1,8)                  1.1            estimate D2E/DX2                !
 ! R4    R(2,3)                  1.422          estimate D2E/DX2                !
 ! R5    R(2,9)                  1.1003         estimate D2E/DX2                !
 ! R6    R(3,4)                  1.4189         estimate D2E/DX2                !
 ! R7    R(3,10)                 1.422          estimate D2E/DX2                !
 ! R8    R(4,5)                  1.4217         estimate D2E/DX2                !
 ! R9    R(4,11)                 1.4221         estimate D2E/DX2                !
 ! R10   R(5,6)                  1.3733         estimate D2E/DX2                !
 ! R11   R(5,12)                 1.1002         estimate D2E/DX2                !
 ! R12   R(6,13)                 1.1            estimate D2E/DX2                !
 ! R13   R(7,10)                 1.1003         estimate D2E/DX2                !
 ! R14   R(10,15)                1.3729         estimate D2E/DX2                !
 ! R15   R(11,14)                1.3729         estimate D2E/DX2                !
 ! R16   R(11,16)                1.1003         estimate D2E/DX2                !
 ! R17   R(14,15)                1.4162         estimate D2E/DX2                !
 ! R18   R(14,17)                1.1            estimate D2E/DX2                !
 ! R19   R(15,18)                1.0999         estimate D2E/DX2                !
 ! A1    A(2,1,6)              120.3763         estimate D2E/DX2                !
 ! A2    A(2,1,8)              120.6477         estimate D2E/DX2                !
 ! A3    A(6,1,8)              118.976          estimate D2E/DX2                !
 ! A4    A(1,2,3)              120.5099         estimate D2E/DX2                !
 ! A5    A(1,2,9)              120.8832         estimate D2E/DX2                !
 ! A6    A(3,2,9)              118.6069         estimate D2E/DX2                !
 ! A7    A(2,3,4)              119.0959         estimate D2E/DX2                !
 ! A8    A(2,3,10)             121.7004         estimate D2E/DX2                !
 ! A9    A(4,3,10)             119.2037         estimate D2E/DX2                !
 ! A10   A(3,4,5)              119.2103         estimate D2E/DX2                !
 ! A11   A(3,4,11)             119.0596         estimate D2E/DX2                !
 ! A12   A(5,4,11)             121.73           estimate D2E/DX2                !
 ! A13   A(4,5,6)              120.4559         estimate D2E/DX2                !
 ! A14   A(4,5,12)             118.6441         estimate D2E/DX2                !
 ! A15   A(6,5,12)             120.8999         estimate D2E/DX2                !
 ! A16   A(1,6,5)              120.3516         estimate D2E/DX2                !
 ! A17   A(1,6,13)             119.0027         estimate D2E/DX2                !
 ! A18   A(5,6,13)             120.6457         estimate D2E/DX2                !
 ! A19   A(3,10,7)             118.6409         estimate D2E/DX2                !
 ! A20   A(3,10,15)            120.4968         estimate D2E/DX2                !
 ! A21   A(7,10,15)            120.8623         estimate D2E/DX2                !
 ! A22   A(4,11,14)            120.5491         estimate D2E/DX2                !
 ! A23   A(4,11,16)            118.5913         estimate D2E/DX2                !
 ! A24   A(14,11,16)           120.8596         estimate D2E/DX2                !
 ! A25   A(11,14,15)           120.3669         estimate D2E/DX2                !
 ! A26   A(11,14,17)           120.6492         estimate D2E/DX2                !
 ! A27   A(15,14,17)           118.9839         estimate D2E/DX2                !
 ! A28   A(10,15,14)           120.3239         estimate D2E/DX2                !
 ! A29   A(10,15,18)           120.685          estimate D2E/DX2                !
 ! A30   A(14,15,18)           118.991          estimate D2E/DX2                !
 ! D1    D(6,1,2,3)             -0.011          estimate D2E/DX2                !
 ! D2    D(6,1,2,9)           -179.9971         estimate D2E/DX2                !
 ! D3    D(8,1,2,3)            179.9952         estimate D2E/DX2                !
 ! D4    D(8,1,2,9)              0.009          estimate D2E/DX2                !
 ! D5    D(2,1,6,5)             -0.0029         estimate D2E/DX2                !
 ! D6    D(2,1,6,13)          -179.9936         estimate D2E/DX2                !
 ! D7    D(8,1,6,5)            179.991          estimate D2E/DX2                !
 ! D8    D(8,1,6,13)             0.0003         estimate D2E/DX2                !
 ! D9    D(1,2,3,4)              0.0171         estimate D2E/DX2                !
 ! D10   D(1,2,3,10)          -179.9875         estimate D2E/DX2                !
 ! D11   D(9,2,3,4)           -179.9964         estimate D2E/DX2                !
 ! D12   D(9,2,3,10)            -0.0011         estimate D2E/DX2                !
 ! D13   D(2,3,4,5)             -0.0096         estimate D2E/DX2                !
 ! D14   D(2,3,4,11)           179.9947         estimate D2E/DX2                !
 ! D15   D(10,3,4,5)           179.995          estimate D2E/DX2                !
 ! D16   D(10,3,4,11)           -0.0008         estimate D2E/DX2                !
 ! D17   D(2,3,10,7)            -0.0135         estimate D2E/DX2                !
 ! D18   D(2,3,10,15)         -179.9995         estimate D2E/DX2                !
 ! D19   D(4,3,10,7)           179.9818         estimate D2E/DX2                !
 ! D20   D(4,3,10,15)           -0.0042         estimate D2E/DX2                !
 ! D21   D(3,4,5,6)             -0.004          estimate D2E/DX2                !
 ! D22   D(3,4,5,12)          -179.9878         estimate D2E/DX2                !
 ! D23   D(11,4,5,6)           179.9916         estimate D2E/DX2                !
 ! D24   D(11,4,5,12)            0.0078         estimate D2E/DX2                !
 ! D25   D(3,4,11,14)            0.0014         estimate D2E/DX2                !
 ! D26   D(3,4,11,16)          179.9984         estimate D2E/DX2                !
 ! D27   D(5,4,11,14)         -179.9942         estimate D2E/DX2                !
 ! D28   D(5,4,11,16)            0.0027         estimate D2E/DX2                !
 ! D29   D(4,5,6,1)              0.0104         estimate D2E/DX2                !
 ! D30   D(4,5,6,13)          -179.999          estimate D2E/DX2                !
 ! D31   D(12,5,6,1)           179.9938         estimate D2E/DX2                !
 ! D32   D(12,5,6,13)           -0.0156         estimate D2E/DX2                !
 ! D33   D(3,10,15,14)           0.0084         estimate D2E/DX2                !
 ! D34   D(3,10,15,18)         179.9987         estimate D2E/DX2                !
 ! D35   D(7,10,15,14)        -179.9773         estimate D2E/DX2                !
 ! D36   D(7,10,15,18)           0.013          estimate D2E/DX2                !
 ! D37   D(4,11,14,15)           0.0027         estimate D2E/DX2                !
 ! D38   D(4,11,14,17)         179.9839         estimate D2E/DX2                !
 ! D39   D(16,11,14,15)       -179.9941         estimate D2E/DX2                !
 ! D40   D(16,11,14,17)         -0.013          estimate D2E/DX2                !
 ! D41   D(11,14,15,10)         -0.0078         estimate D2E/DX2                !
 ! D42   D(11,14,15,18)       -179.9982         estimate D2E/DX2                !
 ! D43   D(17,14,15,10)       -179.9892         estimate D2E/DX2                !
 ! D44   D(17,14,15,18)          0.0203         estimate D2E/DX2                !
 --------------------------------------------------------------------------------
 Trust Radius=3.00D-01 FncErr=1.00D-07 GrdErr=1.00D-07
 Number of steps in this run= 103 maximum allowed number of steps= 108.
 GradGradGradGradGradGradGradGradGradGradGradGradGradGradGradGradGradGrad

                          Input orientation:                          
 ---------------------------------------------------------------------
 Center     Atomic     Atomic              Coordinates (Angstroms)
 Number     Number      Type              X           Y           Z
 ---------------------------------------------------------------------
    1          6             0       -5.408358   -1.281691    0.000263
    2          6             0       -4.035557   -1.281691    0.000263
    3          6             0       -3.313619   -0.056570    0.000263
    4          6             0       -4.031489    1.167296    0.000633
    5          6             0       -5.452905    1.137923    0.000787
    6          6             0       -6.124410   -0.060052    0.000497
    7          1             0       -1.344546   -0.981535    0.000020
    8          1             0       -5.969089   -2.228037    0.000183
    9          1             0       -3.470768   -2.226013    0.000035
   10          6             0       -1.891892   -0.027027    0.000000
   11          6             0       -3.308739    2.392022    0.000748
   12          1             0       -6.000146    2.092379    0.000869
   13          1             0       -7.224047   -0.086419    0.000599
   14          6             0       -1.935878    2.392090    0.000475
   15          6             0       -1.219866    1.170198    0.000016
   16          1             0       -3.873195    3.336563    0.001008
   17          1             0       -1.375186    3.338421    0.000297
   18          1             0       -0.120238    1.196663   -0.000166
 ---------------------------------------------------------------------
                    Distance matrix (angstroms):
                    1          2          3          4          5
     1  C    0.000000
     2  C    1.372801   0.000000
     3  C    2.426696   1.422011   0.000000
     4  C    2.809503   2.448990   1.418868   0.000000
     5  C    2.420024   2.804177   2.450175   1.421719   0.000000
     6  C    1.416027   2.419857   2.810793   2.426253   1.373340
     7  H    4.074882   2.707699   2.175502   3.440514   4.622847
     8  H    1.099995   2.152700   3.430275   3.909294   3.405310
     9  H    2.155458   1.100332   2.175127   3.439325   3.904476
    10  C    3.733593   2.483844   1.422034   2.450364   3.746722
    11  C    4.231379   3.744921   2.448597   1.422083   2.483991
    12  H    3.425575   3.904351   3.440263   2.175176   1.100209
    13  H    2.173799   3.405164   3.910542   3.429902   2.153127
    14  C    5.055174   4.231468   2.809645   2.427284   3.733954
    15  C    4.853373   3.733614   2.426677   2.811625   4.233162
    16  H    4.866723   4.621107   3.438965   2.175035   2.707305
    17  H    6.132855   5.331323   3.909410   3.430704   4.633571
    18  H    5.840073   4.633785   3.430492   3.911361   5.332991
                    6          7          8          9         10
     6  C    0.000000
     7  H    4.867877   0.000000
     8  H    2.173542   4.789589   0.000000
     9  H    3.425376   2.463645   2.498322   0.000000
    10  C    4.232647   1.100306   4.633355   2.707100   0.000000
    11  C    3.733721   3.903709   5.331267   4.620877   2.803436
    12  H    2.156015   5.578849   4.320528   5.004624   4.622730
    13  H    1.099953   5.947249   2.482226   4.320297   5.332486
    14  C    4.853535   3.425058   6.132892   4.866494   2.419517
    15  C    5.056488   2.155342   5.839788   4.074409   1.372941
    16  H    4.074919   5.004002   5.946221   5.577114   3.903755
    17  H    5.839927   4.320065   7.217299   5.945956   3.404883
    18  H    6.134282   2.498695   6.777730   4.789652   2.153178
                   11         12         13         14         15
    11  C    0.000000
    12  H    2.708036   0.000000
    13  H    4.633822   2.499019   0.000000
    14  C    1.372861   4.075304   5.840183   0.000000
    15  C    2.419968   4.868418   6.134271   1.416225   0.000000
    16  H    1.100349   2.464125   4.790096   2.155279   3.425389
    17  H    2.152742   4.789872   6.777810   1.099963   2.173779
    18  H    3.405205   5.947741   7.218754   2.173843   1.099946
                   16         17         18
    16  H    0.000000
    17  H    2.498010   0.000000
    18  H    4.320169   2.482342   0.000000
 Stoichiometry    C10H8
 Framework group  C1[X(C10H8)]
 Deg. of freedom    48
 Full point group                 C1
 Largest Abelian subgroup         C1      NOp   1
 Largest concise Abelian subgroup C1      NOp   1
                         Standard orientation:                         
 ---------------------------------------------------------------------
 Center     Atomic     Atomic              Coordinates (Angstroms)
 Number     Number      Type              X           Y           Z
 ---------------------------------------------------------------------
    1          6             0        2.426104   -0.708815    0.000127
    2          6             0        1.241200   -1.402057    0.000127
    3          6             0       -0.000592   -0.709186    0.000127
    4          6             0        0.000990    0.709681   -0.000243
    5          6             0        1.242689    1.402120   -0.000397
    6          6             0        2.427242    0.707212   -0.000107
    7          1             0       -1.233064   -2.501900    0.000370
    8          1             0        3.387976   -1.242474    0.000207
    9          1             0        1.230581   -2.502338    0.000355
   10          6             0       -1.242645   -1.401635    0.000390
   11          6             0       -1.241303    1.401800   -0.000358
   12          1             0        1.233044    2.502286   -0.000479
   13          1             0        3.389685    1.239752   -0.000209
   14          6             0       -2.426293    0.708587   -0.000085
   15          6             0       -2.427269   -0.707638    0.000374
   16          1             0       -1.231082    2.502102   -0.000618
   17          1             0       -3.388124    1.242252    0.000093
   18          1             0       -3.389754   -1.240089    0.000556
 ---------------------------------------------------------------------
 Rotational constants (GHZ):      3.1209900      1.2352643      0.8849914
 Standard basis: 6-31G(d) (6D, 7F)
 There are   166 symmetry adapted basis functions of A   symmetry.
 Integral buffers will be    262144 words long.
 Raffenetti 1 integral format.
 Two-electron integral symmetry is turned on.
   166 basis functions,   312 primitive gaussians,   166 cartesian basis functions
    34 alpha electrons       34 beta electrons
       nuclear repulsion energy       457.5564671306 Hartrees.
 NAtoms=   18 NActive=   18 NUniq=   18 SFac= 7.50D-01 NAtFMM=   80 NAOKFM=F Big=F
 One-electron integrals computed using PRISM.
 NBasis=   166 RedAO= T  NBF=   166
 NBsUse=   166 1.00D-06 NBFU=   166
 Harris functional with IExCor=  205 diagonalized for initial guess.
 ExpMin= 1.61D-01 ExpMax= 3.05D+03 ExpMxC= 4.57D+02 IAcc=1 IRadAn=         1 AccDes= 1.00D-06
 HarFok:  IExCor= 205 AccDes= 1.00D-06 IRadAn=         1 IDoV=1
 ScaDFX=  1.000000  1.000000  1.000000  1.000000
 Initial guess orbital symmetries:
       Occupied  (A) (A) (A) (A) (A) (A) (A) (A) (A) (A) (A) (A)
                 (A) (A) (A) (A) (A) (A) (A) (A) (A) (A) (A) (A)
                 (A) (A) (A) (A) (A) (A) (A) (A) (A) (A)
       Virtual   (A) (A) (A) (A) (A) (A) (A) (A) (A) (A) (A) (A)
                 (A) (A) (A) (A) (A) (A) (A) (A) (A) (A) (A) (A)
                 (A) (A) (A) (A) (A) (A) (A) (A) (A) (A) (A) (A)
                 (A) (A) (A) (A) (A) (A) (A) (A) (A) (A) (A) (A)
                 (A) (A) (A) (A) (A) (A) (A) (A) (A) (A) (A) (A)
                 (A) (A) (A) (A) (A) (A) (A) (A) (A) (A) (A) (A)
                 (A) (A) (A) (A) (A) (A) (A) (A) (A) (A) (A) (A)
                 (A) (A) (A) (A) (A) (A) (A) (A) (A) (A) (A) (A)
                 (A) (A) (A) (A) (A) (A) (A) (A) (A) (A) (A) (A)
                 (A) (A) (A) (A) (A) (A) (A) (A) (A) (A) (A) (A)
                 (A) (A) (A) (A) (A) (A) (A) (A) (A) (A) (A) (A)
 The electronic state of the initial guess is 1-A.
 Requested convergence on RMS density matrix=1.00D-08 within 128 cycles.
 Requested convergence on MAX density matrix=1.00D-06.
 Requested convergence on             energy=1.00D-06.
 No special actions if energy rises.
 Integral accuracy reduced to 1.0D-05 until final iterations.
 Initial convergence to 1.0D-05 achieved.  Increase integral accuracy.
 SCF Done:  E(RHF) =  -383.350673004     A.U. after   14 cycles
             Convg  =    0.1698D-08             -V/T =  2.0022
             S**2   =   0.0000

 **********************************************************************

            Population analysis using the SCF density.

 **********************************************************************

 Orbital symmetries:
       Occupied  (A) (A) (A) (A) (A) (A) (A) (A) (A) (A) (A) (A)
                 (A) (A) (A) (A) (A) (A) (A) (A) (A) (A) (A) (A)
                 (A) (A) (A) (A) (A) (A) (A) (A) (A) (A)
       Virtual   (A) (A) (A) (A) (A) (A) (A) (A) (A) (A) (A) (A)
                 (A) (A) (A) (A) (A) (A) (A) (A) (A) (A) (A) (A)
                 (A) (A) (A) (A) (A) (A) (A) (A) (A) (A) (A) (A)
                 (A) (A) (A) (A) (A) (A) (A) (A) (A) (A) (A) (A)
                 (A) (A) (A) (A) (A) (A) (A) (A) (A) (A) (A) (A)
                 (A) (A) (A) (A) (A) (A) (A) (A) (A) (A) (A) (A)
                 (A) (A) (A) (A) (A) (A) (A) (A) (A) (A) (A) (A)
                 (A) (A) (A) (A) (A) (A) (A) (A) (A) (A) (A) (A)
                 (A) (A) (A) (A) (A) (A) (A) (A) (A) (A) (A) (A)
                 (A) (A) (A) (A) (A) (A) (A) (A) (A) (A) (A) (A)
                 (A) (A) (A) (A) (A) (A) (A) (A) (A) (A) (A) (A)
 The electronic state is 1-A.
 Alpha  occ. eigenvalues --  -11.24187 -11.24086 -11.23782 -11.23775 -11.23750
 Alpha  occ. eigenvalues --  -11.23737 -11.23649 -11.23643 -11.23578 -11.23575
 Alpha  occ. eigenvalues --   -1.17141  -1.10363  -1.04397  -1.00301  -0.97464
 Alpha  occ. eigenvalues --   -0.84686  -0.82842  -0.80570  -0.69703  -0.69000
 Alpha  occ. eigenvalues --   -0.67091  -0.61599  -0.60466  -0.57788  -0.57529
 Alpha  occ. eigenvalues --   -0.55735  -0.52793  -0.51640  -0.48121  -0.47241
 Alpha  occ. eigenvalues --   -0.44282  -0.37925  -0.31424  -0.28385
 Alpha virt. eigenvalues --    0.09843   0.13042   0.18876   0.23330   0.25450
 Alpha virt. eigenvalues --    0.26100   0.28824   0.30797   0.31522   0.31987
 Alpha virt. eigenvalues --    0.33327   0.35342   0.41370   0.41639   0.46305
 Alpha virt. eigenvalues --    0.48785   0.49389   0.49576   0.51180   0.54183
 Alpha virt. eigenvalues --    0.66775   0.72332   0.73168   0.74096   0.74473
 Alpha virt. eigenvalues --    0.74627   0.75617   0.77718   0.79060   0.80199
 Alpha virt. eigenvalues --    0.81192   0.82502   0.84240   0.84604   0.85145
 Alpha virt. eigenvalues --    0.85384   0.85970   0.86008   0.86411   0.92184
 Alpha virt. eigenvalues --    0.93367   0.93570   1.00511   1.08105   1.08345
 Alpha virt. eigenvalues --    1.09429   1.09648   1.10184   1.12130   1.12151
 Alpha virt. eigenvalues --    1.14047   1.14792   1.18390   1.19782   1.20662
 Alpha virt. eigenvalues --    1.24522   1.24950   1.28193   1.28261   1.29832
 Alpha virt. eigenvalues --    1.34900   1.40194   1.45053   1.46471   1.49712
 Alpha virt. eigenvalues --    1.51067   1.53009   1.56570   1.66251   1.68255
 Alpha virt. eigenvalues --    1.69380   1.71471   1.73188   1.75395   1.76939
 Alpha virt. eigenvalues --    1.77454   1.77889   1.79118   1.79914   2.01491
 Alpha virt. eigenvalues --    2.06579   2.08253   2.15337   2.17002   2.17014
 Alpha virt. eigenvalues --    2.19901   2.23962   2.25963   2.26143   2.27378
 Alpha virt. eigenvalues --    2.30517   2.34822   2.37232   2.44246   2.47443
 Alpha virt. eigenvalues --    2.48663   2.51736   2.52620   2.53327   2.60242
 Alpha virt. eigenvalues --    2.61054   2.62489   2.65623   2.65981   2.71399
 Alpha virt. eigenvalues --    2.74079   2.94483   2.95948   2.96199   2.96748
 Alpha virt. eigenvalues --    2.97861   3.02463   3.05415   3.10013   3.13499
 Alpha virt. eigenvalues --    3.19705   3.20273   3.24652   3.31316   3.45278
 Alpha virt. eigenvalues --    3.73487   3.85898   4.50960   4.51798   4.54038
 Alpha virt. eigenvalues --    4.54375   4.57212   4.68149   4.77359   4.82380
 Alpha virt. eigenvalues --    4.94103   5.23303
          Condensed to atoms (all electrons):
              1          2          3          4          5          6
     1  C    4.915952   0.583897  -0.041091  -0.026743  -0.042470   0.491849
     2  C    0.583897   4.937076   0.490114  -0.033772  -0.042419  -0.042374
     3  C   -0.041091   0.490114   4.704722   0.576572  -0.033794  -0.026693
     4  C   -0.026743  -0.033772   0.576572   4.704420   0.490157  -0.041045
     5  C   -0.042470  -0.042419  -0.033794   0.490157   4.937241   0.583713
     6  C    0.491849  -0.042374  -0.026693  -0.041045   0.583713   4.916112
     7  H    0.000091  -0.000353  -0.034149   0.001734  -0.000115   0.000008
     8  H    0.378907  -0.025699   0.001337   0.000451   0.002087  -0.029780
     9  H   -0.026057   0.376714  -0.034192   0.001751   0.000244   0.002177
    10  C    0.003677  -0.055120   0.489935  -0.033761   0.006926  -0.000432
    11  C   -0.000428   0.006950  -0.033774   0.489889  -0.055138   0.003674
    12  H    0.002172   0.000243   0.001738  -0.034137   0.376724  -0.026014
    13  H   -0.029747   0.002083   0.000452   0.001336  -0.025689   0.378881
    14  C    0.000083  -0.000428  -0.026743  -0.041040   0.003675  -0.000232
    15  C   -0.000232   0.003674  -0.040982  -0.026646  -0.000433   0.000083
    16  H    0.000008  -0.000116   0.001755  -0.034230  -0.000339   0.000091
    17  H    0.000000   0.000006   0.000452   0.001333  -0.000103   0.000002
    18  H    0.000002  -0.000103   0.001331   0.000452   0.000006   0.000000
              7          8          9         10         11         12
     1  C    0.000091   0.378907  -0.026057   0.003677  -0.000428   0.002172
     2  C   -0.000353  -0.025699   0.376714  -0.055120   0.006950   0.000243
     3  C   -0.034149   0.001337  -0.034192   0.489935  -0.033774   0.001738
     4  C    0.001734   0.000451   0.001751  -0.033761   0.489889  -0.034137
     5  C   -0.000115   0.002087   0.000244   0.006926  -0.055138   0.376724
     6  C    0.000008  -0.029780   0.002177  -0.000432   0.003674  -0.026014
     7  H    0.471659  -0.000006   0.003390   0.376735   0.000244   0.000001
     8  H   -0.000006   0.472821  -0.001394  -0.000103   0.000006  -0.000105
     9  H    0.003390  -0.001394   0.471802  -0.000343  -0.000116   0.000011
    10  C    0.376735  -0.000103  -0.000343   4.937141  -0.042462  -0.000115
    11  C    0.000244   0.000006  -0.000116  -0.042462   4.937274  -0.000351
    12  H    0.000001  -0.000105   0.000011  -0.000115  -0.000351   0.471502
    13  H    0.000000  -0.001121  -0.000105   0.000006  -0.000103  -0.001378
    14  C    0.002179   0.000000   0.000008  -0.042537   0.584089   0.000090
    15  C   -0.026059   0.000002   0.000091   0.583941  -0.042387   0.000008
    16  H    0.000011   0.000000   0.000002   0.000245   0.376728   0.003390
    17  H   -0.000106   0.000000   0.000000   0.002089  -0.025692  -0.000006
    18  H   -0.001383   0.000000  -0.000006  -0.025653   0.002084   0.000000
             13         14         15         16         17         18
     1  C   -0.029747   0.000083  -0.000232   0.000008   0.000000   0.000002
     2  C    0.002083  -0.000428   0.003674  -0.000116   0.000006  -0.000103
     3  C    0.000452  -0.026743  -0.040982   0.001755   0.000452   0.001331
     4  C    0.001336  -0.041040  -0.026646  -0.034230   0.001333   0.000452
     5  C   -0.025689   0.003675  -0.000433  -0.000339  -0.000103   0.000006
     6  C    0.378881  -0.000232   0.000083   0.000091   0.000002   0.000000
     7  H    0.000000   0.002179  -0.026059   0.000011  -0.000106  -0.001383
     8  H   -0.001121   0.000000   0.000002   0.000000   0.000000   0.000000
     9  H   -0.000105   0.000008   0.000091   0.000002   0.000000  -0.000006
    10  C    0.000006  -0.042537   0.583941   0.000245   0.002089  -0.025653
    11  C   -0.000103   0.584089  -0.042387   0.376728  -0.025692   0.002084
    12  H   -0.001378   0.000090   0.000008   0.003390  -0.000006   0.000000
    13  H    0.472753   0.000002   0.000000  -0.000006   0.000000   0.000000
    14  C    0.000002   4.915997   0.491645  -0.026074   0.378909  -0.029750
    15  C    0.000000   0.491645   4.916045   0.002180  -0.029776   0.378869
    16  H   -0.000006  -0.026074   0.002180   0.471959  -0.001397  -0.000105
    17  H    0.000000   0.378909  -0.029776  -0.001397   0.472797  -0.001115
    18  H    0.000000  -0.029750   0.378869  -0.000105  -0.001115   0.472688
 Mulliken atomic charges:
              1
     1  C   -0.209869
     2  C   -0.200373
     3  C    0.003010
     4  C    0.003279
     5  C   -0.200272
     6  C   -0.210021
     7  H    0.206119
     8  H    0.202598
     9  H    0.206023
    10  C   -0.200170
    11  C   -0.200486
    12  H    0.206226
    13  H    0.202637
    14  C   -0.209873
    15  C   -0.210020
    16  H    0.205901
    17  H    0.202608
    18  H    0.202685
 Sum of Mulliken charges=   0.00000
 Atomic charges with hydrogens summed into heavy atoms:
              1
     1  C   -0.007271
     2  C    0.005650
     3  C    0.003010
     4  C    0.003279
     5  C    0.005953
     6  C   -0.007385
     7  H    0.000000
     8  H    0.000000
     9  H    0.000000
    10  C    0.005949
    11  C    0.005414
    12  H    0.000000
    13  H    0.000000
    14  C   -0.007266
    15  C   -0.007335
    16  H    0.000000
    17  H    0.000000
    18  H    0.000000
 Sum of Mulliken charges=   0.00000
 Electronic spatial extent (au):  <R**2>=  1290.6452
 Charge=     0.0000 electrons
 Dipole moment (field-independent basis, Debye):
    X=     0.0002    Y=    -0.0003    Z=     0.0001  Tot=     0.0004
 Quadrupole moment (field-independent basis, Debye-Ang):
   XX=   -50.7582   YY=   -50.9782   ZZ=   -64.4954
   XY=     0.0088   XZ=    -0.0007   YZ=    -0.0018
 Traceless Quadrupole moment (field-independent basis, Debye-Ang):
   XX=     4.6524   YY=     4.4324   ZZ=    -9.0848
   XY=     0.0088   XZ=    -0.0007   YZ=    -0.0018
 Octapole moment (field-independent basis, Debye-Ang**2):
  XXX=    -0.0187  YYY=    -0.0005  ZZZ=     0.0001  XYY=     0.0080
  XXY=    -0.0042  XXZ=     0.0044  XZZ=     0.0002  YZZ=    -0.0008
  YYZ=    -0.0008  XYZ=    -0.0005
 Hexadecapole moment (field-independent basis, Debye-Ang**3):
 XXXX= -1065.2550 YYYY=  -471.2402 ZZZZ=   -69.8337 XXXY=     0.0497
 XXXZ=     0.0050 YYYX=     0.0566 YYYZ=     0.0379 ZZZX=     0.0229
 ZZZY=     0.0580 XXYY=  -264.6147 XXZZ=  -238.0524 YYZZ=  -110.5805
 XXYZ=     0.0108 YYXZ=     0.0071 ZZXY=     0.0014
 N-N= 4.575564671306D+02 E-N=-1.807213368442D+03  KE= 3.825240855933D+02
 ***** Axes restored to original set *****
 -------------------------------------------------------------------
 Center     Atomic                   Forces (Hartrees/Bohr)
 Number     Number              X              Y              Z
 -------------------------------------------------------------------
    1          6           0.004089256   -0.013036780    0.000013585
    2          6          -0.004778281   -0.010413898   -0.000029463
    3          6          -0.001173606    0.001098943    0.000019025
    4          6           0.001494160   -0.001172364   -0.000004504
    5          6          -0.011719748    0.000133592   -0.000026348
    6          6          -0.009064935    0.010489482    0.000021152
    7          1          -0.007806570    0.015650222   -0.000016286
    8          1           0.010062123    0.014527733   -0.000001353
    9          1          -0.009923888    0.014411541    0.000007215
   10          6           0.011638849   -0.000546251    0.000020312
   11          6           0.004838365    0.010623073    0.000000704
   12          1           0.007725187   -0.015641004    0.000008779
   13          1           0.017574925    0.001642139   -0.000007061
   14          6          -0.004235149    0.012905611   -0.000036329
   15          6           0.009006009   -0.010050051    0.000016028
   16          1           0.009911793   -0.014412136   -0.000003308
   17          1          -0.010062439   -0.014509947    0.000017243
   18          1          -0.017576052   -0.001699904    0.000000607
 -------------------------------------------------------------------
 Cartesian Forces:  Max     0.017576052 RMS     0.008346822

 GradGradGradGradGradGradGradGradGradGradGradGradGradGradGradGradGradGrad
 Berny optimization.
 Internal  Forces:  Max     0.017627715 RMS     0.006204836
 Search for a local minimum.
 Step number   1 out of a maximum of 103
 All quantities printed in internal units (Hartrees-Bohrs-Radians)
 Second derivative matrix not updated -- first step.
     Eigenvalues ---    0.01806   0.01817   0.01818   0.01995   0.02012
     Eigenvalues ---    0.02032   0.02051   0.02129   0.02130   0.02159
     Eigenvalues ---    0.02159   0.02190   0.02222   0.02287   0.02305
     Eigenvalues ---    0.16000   0.16000   0.16000   0.16000   0.16000
     Eigenvalues ---    0.16000   0.16000   0.16000   0.22000   0.22000
     Eigenvalues ---    0.22333   0.22797   0.24282   0.24714   0.33644
     Eigenvalues ---    0.33645   0.33648   0.33659   0.33683   0.33686
     Eigenvalues ---    0.33687   0.33688   0.37465   0.39658   0.40110
     Eigenvalues ---    0.41032   0.42246   0.42558   0.42923   0.48396
     Eigenvalues ---    0.48613   0.49798   0.498281000.000001000.00000
     Eigenvalues --- 1000.000001000.000001000.000001000.000001000.00000
     Eigenvalues --- 1000.000001000.000001000.000001000.000001000.00000
     Eigenvalues --- 1000.000001000.000001000.000001000.000001000.00000
     Eigenvalues --- 1000.000001000.000001000.000001000.000001000.00000
     Eigenvalues --- 1000.000001000.000001000.000001000.000001000.00000
     Eigenvalues --- 1000.000001000.000001000.000001000.000001000.00000
     Eigenvalues --- 1000.000001000.000001000.000001000.000001000.00000
     Eigenvalues --- 1000.000001000.000001000.000001000.000001000.00000
     Eigenvalues --- 1000.000001000.000001000.00000
 RFO step:  Lambda=-9.45797920D-03.
 Linear search not attempted -- first point.
 Iteration  1 RMS(Cart)=  0.02356257 RMS(Int)=  0.00008495
 Iteration  2 RMS(Cart)=  0.00012373 RMS(Int)=  0.00000061
 Iteration  3 RMS(Cart)=  0.00000001 RMS(Int)=  0.00000061
 Variable       Old X    -DE/DX   Delta X   Delta X   Delta X     New X
                                 (Linear)    (Quad)   (Total)
    R1        2.59422  -0.01531   0.00000  -0.03010  -0.03010   2.56412
    R2        2.67590  -0.00215   0.00000  -0.00565  -0.00566   2.67025
    R3        2.07869  -0.01763   0.00000  -0.05091  -0.05091   2.02778
    R4        2.68721  -0.00347   0.00000  -0.00764  -0.00764   2.67957
    R5        2.07933  -0.01746   0.00000  -0.05048  -0.05048   2.02885
    R6        2.68127  -0.00752   0.00000  -0.01569  -0.01569   2.66558
    R7        2.68725  -0.00352   0.00000  -0.00781  -0.00781   2.67945
    R8        2.68666  -0.00333   0.00000  -0.00736  -0.00736   2.67930
    R9        2.68735  -0.00344   0.00000  -0.00758  -0.00758   2.67977
   R10        2.59524  -0.01576   0.00000  -0.03109  -0.03109   2.56415
   R11        2.07909  -0.01741   0.00000  -0.05031  -0.05031   2.02878
   R12        2.07861  -0.01761   0.00000  -0.05085  -0.05085   2.02776
   R13        2.07928  -0.01746   0.00000  -0.05047  -0.05047   2.02881
   R14        2.59448  -0.01546   0.00000  -0.03045  -0.03045   2.56404
   R15        2.59433  -0.01548   0.00000  -0.03045  -0.03045   2.56388
   R16        2.07936  -0.01746   0.00000  -0.05047  -0.05047   2.02889
   R17        2.67628  -0.00218   0.00000  -0.00572  -0.00572   2.67056
   R18        2.07863  -0.01761   0.00000  -0.05086  -0.05086   2.02777
   R19        2.07860  -0.01761   0.00000  -0.05085  -0.05085   2.02775
    A1        2.10096   0.00020   0.00000  -0.00104  -0.00104   2.09992
    A2        2.10570  -0.00140   0.00000  -0.00715  -0.00715   2.09855
    A3        2.07652   0.00120   0.00000   0.00819   0.00819   2.08472
    A4        2.10330   0.00085   0.00000   0.00405   0.00405   2.10735
    A5        2.10981  -0.00159   0.00000  -0.00890  -0.00889   2.10091
    A6        2.07008   0.00074   0.00000   0.00484   0.00484   2.07492
    A7        2.07862  -0.00103   0.00000  -0.00278  -0.00278   2.07584
    A8        2.12407   0.00247   0.00000   0.00726   0.00726   2.13133
    A9        2.08050  -0.00144   0.00000  -0.00448  -0.00448   2.07601
   A10        2.08061  -0.00147   0.00000  -0.00460  -0.00460   2.07601
   A11        2.07798  -0.00088   0.00000  -0.00223  -0.00223   2.07575
   A12        2.12459   0.00235   0.00000   0.00683   0.00683   2.13142
   A13        2.10235   0.00112   0.00000   0.00500   0.00500   2.10735
   A14        2.07073   0.00056   0.00000   0.00412   0.00411   2.07485
   A15        2.11010  -0.00168   0.00000  -0.00911  -0.00911   2.10099
   A16        2.10053   0.00032   0.00000  -0.00063  -0.00063   2.09990
   A17        2.07699   0.00111   0.00000   0.00780   0.00780   2.08479
   A18        2.10566  -0.00143   0.00000  -0.00717  -0.00717   2.09849
   A19        2.07068   0.00058   0.00000   0.00405   0.00405   2.07473
   A20        2.10307   0.00095   0.00000   0.00433   0.00433   2.10740
   A21        2.10944  -0.00153   0.00000  -0.00838  -0.00838   2.10106
   A22        2.10398   0.00073   0.00000   0.00348   0.00348   2.10746
   A23        2.06981   0.00079   0.00000   0.00510   0.00510   2.07491
   A24        2.10940  -0.00153   0.00000  -0.00858  -0.00858   2.10082
   A25        2.10080   0.00023   0.00000  -0.00091  -0.00091   2.09989
   A26        2.10573  -0.00143   0.00000  -0.00728  -0.00728   2.09845
   A27        2.07666   0.00119   0.00000   0.00819   0.00819   2.08485
   A28        2.10005   0.00041   0.00000  -0.00019  -0.00019   2.09986
   A29        2.10635  -0.00153   0.00000  -0.00773  -0.00773   2.09862
   A30        2.07679   0.00112   0.00000   0.00792   0.00792   2.08471
    D1       -0.00019   0.00001   0.00000   0.00020   0.00020   0.00001
    D2       -3.14154   0.00000   0.00000  -0.00005  -0.00005   3.14159
    D3        3.14151   0.00000   0.00000   0.00011   0.00011  -3.14157
    D4        0.00016   0.00000   0.00000  -0.00014  -0.00014   0.00001
    D5       -0.00005   0.00000   0.00000   0.00004   0.00004  -0.00001
    D6       -3.14148   0.00000   0.00000  -0.00011  -0.00011  -3.14159
    D7        3.14144   0.00000   0.00000   0.00013   0.00013   3.14157
    D8        0.00001   0.00000   0.00000  -0.00002  -0.00002  -0.00001
    D9        0.00030  -0.00001   0.00000  -0.00029  -0.00029   0.00000
   D10       -3.14138  -0.00001   0.00000  -0.00020  -0.00020  -3.14158
   D11       -3.14153   0.00000   0.00000  -0.00005  -0.00005  -3.14158
   D12       -0.00002   0.00000   0.00000   0.00004   0.00004   0.00002
   D13       -0.00017   0.00000   0.00000   0.00016   0.00016  -0.00001
   D14        3.14150   0.00000   0.00000   0.00012   0.00012  -3.14157
   D15        3.14150   0.00000   0.00000   0.00006   0.00006   3.14157
   D16       -0.00001   0.00000   0.00000   0.00003   0.00003   0.00001
   D17       -0.00024   0.00000   0.00000   0.00015   0.00015  -0.00008
   D18       -3.14158   0.00000   0.00000  -0.00005  -0.00005   3.14155
   D19        3.14128   0.00001   0.00000   0.00025   0.00025   3.14152
   D20       -0.00007   0.00000   0.00000   0.00005   0.00005  -0.00003
   D21       -0.00007   0.00000   0.00000   0.00008   0.00008   0.00001
   D22       -3.14138   0.00000   0.00000  -0.00017  -0.00017  -3.14155
   D23        3.14145   0.00000   0.00000   0.00012   0.00012   3.14156
   D24        0.00014   0.00000   0.00000  -0.00013  -0.00013   0.00000
   D25        0.00003   0.00000   0.00000  -0.00001  -0.00001   0.00002
   D26        3.14156   0.00000   0.00000   0.00005   0.00005  -3.14157
   D27       -3.14149   0.00000   0.00000  -0.00004  -0.00004  -3.14153
   D28        0.00005   0.00000   0.00000   0.00002   0.00002   0.00006
   D29        0.00018  -0.00001   0.00000  -0.00018  -0.00018   0.00000
   D30       -3.14158   0.00000   0.00000  -0.00003  -0.00003   3.14158
   D31        3.14149   0.00000   0.00000   0.00007   0.00007   3.14156
   D32       -0.00027   0.00001   0.00000   0.00023   0.00023  -0.00005
   D33        0.00015   0.00000   0.00000  -0.00014  -0.00014   0.00001
   D34        3.14157   0.00000   0.00000   0.00003   0.00003  -3.14158
   D35       -3.14120  -0.00001   0.00000  -0.00035  -0.00035  -3.14154
   D36        0.00023  -0.00001   0.00000  -0.00018  -0.00018   0.00005
   D37        0.00005   0.00000   0.00000  -0.00009  -0.00009  -0.00004
   D38        3.14131   0.00001   0.00000   0.00022   0.00022   3.14153
   D39       -3.14149   0.00000   0.00000  -0.00015  -0.00015   3.14155
   D40       -0.00023   0.00001   0.00000   0.00016   0.00016  -0.00007
   D41       -0.00014   0.00001   0.00000   0.00016   0.00016   0.00003
   D42       -3.14156   0.00000   0.00000   0.00000   0.00000  -3.14157
   D43       -3.14140   0.00000   0.00000  -0.00014  -0.00014  -3.14154
   D44        0.00035  -0.00001   0.00000  -0.00030  -0.00031   0.00005
         Item               Value     Threshold  Converged?
 Maximum Force            0.017628     0.000450     NO 
 RMS     Force            0.006205     0.000300     NO 
 Maximum Displacement     0.076461     0.001800     NO 
 RMS     Displacement     0.023553     0.001200     NO 
 Predicted change in Energy=-4.851385D-03
 GradGradGradGradGradGradGradGradGradGradGradGradGradGradGradGradGradGrad

                          Input orientation:                          
 ---------------------------------------------------------------------
 Center     Atomic     Atomic              Coordinates (Angstroms)
 Number     Number      Type              X           Y           Z
 ---------------------------------------------------------------------
    1          6             0       -5.396775   -1.273328    0.000311
    2          6             0       -4.039901   -1.272496    0.000145
    3          6             0       -3.315819   -0.053343    0.000258
    4          6             0       -4.028681    1.163833    0.000551
    5          6             0       -5.446079    1.128957    0.000709
    6          6             0       -6.110791   -0.053964    0.000592
    7          1             0       -1.356972   -0.945577   -0.000086
    8          1             0       -5.936590   -2.200718    0.000243
    9          1             0       -3.496474   -2.198424   -0.000066
   10          6             0       -1.898345   -0.018470    0.000071
   11          6             0       -3.304438    2.383013    0.000630
   12          1             0       -5.987560    2.055984    0.000891
   13          1             0       -7.183705   -0.070859    0.000724
   14          6             0       -1.947691    2.383876    0.000405
   15          6             0       -1.233602    1.164367    0.000138
   16          1             0       -3.847808    3.309004    0.000877
   17          1             0       -1.407995    3.311327    0.000408
   18          1             0       -0.160699    1.181339   -0.000013
 ---------------------------------------------------------------------
                    Distance matrix (angstroms):
                    1          2          3          4          5
     1  C    0.000000
     2  C    1.356874   0.000000
     3  C    2.412206   1.417966   0.000000
     4  C    2.794894   2.436354   1.410563   0.000000
     5  C    2.402790   2.782860   2.436357   1.417827   0.000000
     6  C    1.413034   2.402791   2.794972   2.412097   1.356888
     7  H    4.053077   2.702774   2.152479   3.404062   4.585247
     8  H    1.073058   2.111640   3.388164   3.867857   3.365611
     9  H    2.113516   1.073619   2.152675   3.404117   3.856478
    10  C    3.716676   2.481701   1.417903   2.436426   3.728673
    11  C    4.212683   3.728759   2.436382   1.418072   2.481790
    12  H    3.381322   3.856443   3.404035   2.152473   1.073583
    13  H    2.153845   3.365625   3.867925   3.388014   2.111611
    14  C    5.027059   4.212647   2.794961   2.412265   3.716657
    15  C    4.824352   3.716667   2.412146   2.795079   4.212626
    16  H    4.837051   4.585525   3.404172   2.152783   2.703160
    17  H    6.076959   5.285675   3.867919   3.388175   4.590083
    18  H    5.782896   4.590154   3.388100   3.868021   5.285639
                    6          7          8          9         10
     6  C    0.000000
     7  H    4.836711   0.000000
     8  H    2.153810   4.748503   0.000000
     9  H    3.381326   2.479333   2.440117   0.000000
    10  C    4.212595   1.073598   4.590166   2.703001   0.000000
    11  C    3.716782   3.856441   5.285717   4.585460   2.782843
    12  H    2.113544   5.518307   4.257007   4.930061   4.585306
    13  H    1.073047   5.892024   2.468116   4.257019   5.285619
    14  C    4.824361   3.381451   6.076990   4.836962   2.402853
    15  C    5.027057   2.113548   5.782896   4.053264   1.356830
    16  H    4.053473   4.930084   5.892371   5.518623   3.856487
    17  H    5.782860   4.257210   7.133779   5.892292   3.365708
    18  H    6.076970   2.440255   6.693222   4.748704   2.111624
                   11         12         13         14         15
    11  C    0.000000
    12  H    2.702978   0.000000
    13  H    4.590228   2.440128   0.000000
    14  C    1.356747   4.053153   5.782868   0.000000
    15  C    2.402803   4.836848   6.076965   1.413197   0.000000
    16  H    1.073644   2.479636   4.748861   2.113364   3.381352
    17  H    2.111460   4.748505   6.693131   1.073051   2.154031
    18  H    3.365578   5.892140   7.133766   2.153935   1.073037
                   16         17         18
    16  H    0.000000
    17  H    2.439814   0.000000
    18  H    4.256962   2.468318   0.000000
 Stoichiometry    C10H8
 Framework group  C1[X(C10H8)]
 Deg. of freedom    48
 Full point group                 C1
 Largest Abelian subgroup         C1      NOp   1
 Largest concise Abelian subgroup C1      NOp   1
                         Standard orientation:                         
 ---------------------------------------------------------------------
 Center     Atomic     Atomic              Coordinates (Angstroms)
 Number     Number      Type              X           Y           Z
 ---------------------------------------------------------------------
    1          6             0       -2.412193    0.706484    0.000017
    2          6             0       -1.240881    1.391419    0.000004
    3          6             0        0.000013    0.705264   -0.000018
    4          6             0       -0.000077   -0.705299   -0.000031
    5          6             0       -1.240820   -1.391441   -0.000008
    6          6             0       -2.412174   -0.706551    0.000016
    7          1             0        1.239504    2.465045   -0.000068
    8          1             0       -3.346644    1.233981    0.000014
    9          1             0       -1.239829    2.465037    0.000003
   10          6             0        1.240820    1.391447   -0.000012
   11          6             0        1.240970   -1.391396   -0.000020
   12          1             0       -1.239638   -2.465023    0.000023
   13          1             0       -3.346564   -1.234135    0.000023
   14          6             0        2.412188   -0.706551    0.000027
   15          6             0        2.412158    0.706646    0.000014
   16          1             0        1.239998   -2.465039   -0.000054
   17          1             0        3.346568   -1.234161    0.000094
   18          1             0        3.346578    1.234157    0.000026
 ---------------------------------------------------------------------
 Rotational constants (GHZ):      3.1691642      1.2492472      0.8960391
 Standard basis: 6-31G(d) (6D, 7F)
 There are   166 symmetry adapted basis functions of A   symmetry.
 Integral buffers will be    262144 words long.
 Raffenetti 1 integral format.
 Two-electron integral symmetry is turned on.
   166 basis functions,   312 primitive gaussians,   166 cartesian basis functions
    34 alpha electrons       34 beta electrons
       nuclear repulsion energy       461.0359893743 Hartrees.
 NAtoms=   18 NActive=   18 NUniq=   18 SFac= 7.50D-01 NAtFMM=   80 NAOKFM=F Big=F
 One-electron integrals computed using PRISM.
 NBasis=   166 RedAO= T  NBF=   166
 NBsUse=   166 1.00D-06 NBFU=   166
 Initial guess read from the read-write file:
 Initial guess orbital symmetries:
       Occupied  (A) (A) (A) (A) (A) (A) (A) (A) (A) (A) (A) (A)
                 (A) (A) (A) (A) (A) (A) (A) (A) (A) (A) (A) (A)
                 (A) (A) (A) (A) (A) (A) (A) (A) (A) (A)
       Virtual   (A) (A) (A) (A) (A) (A) (A) (A) (A) (A) (A) (A)
                 (A) (A) (A) (A) (A) (A) (A) (A) (A) (A) (A) (A)
                 (A) (A) (A) (A) (A) (A) (A) (A) (A) (A) (A) (A)
                 (A) (A) (A) (A) (A) (A) (A) (A) (A) (A) (A) (A)
                 (A) (A) (A) (A) (A) (A) (A) (A) (A) (A) (A) (A)
                 (A) (A) (A) (A) (A) (A) (A) (A) (A) (A) (A) (A)
                 (A) (A) (A) (A) (A) (A) (A) (A) (A) (A) (A) (A)
                 (A) (A) (A) (A) (A) (A) (A) (A) (A) (A) (A) (A)
                 (A) (A) (A) (A) (A) (A) (A) (A) (A) (A) (A) (A)
                 (A) (A) (A) (A) (A) (A) (A) (A) (A) (A) (A) (A)
                 (A) (A) (A) (A) (A) (A) (A) (A) (A) (A) (A) (A)
 Harris functional with IExCor=  205 diagonalized for initial guess.
 ExpMin= 1.61D-01 ExpMax= 3.05D+03 ExpMxC= 4.57D+02 IAcc=1 IRadAn=         1 AccDes= 1.00D-06
 HarFok:  IExCor= 205 AccDes= 1.00D-06 IRadAn=         1 IDoV=1
 ScaDFX=  1.000000  1.000000  1.000000  1.000000
 Requested convergence on RMS density matrix=1.00D-08 within 128 cycles.
 Requested convergence on MAX density matrix=1.00D-06.
 Requested convergence on             energy=1.00D-06.
 No special actions if energy rises.
 Integral accuracy reduced to 1.0D-05 until final iterations.
 Initial convergence to 1.0D-05 achieved.  Increase integral accuracy.
 SCF Done:  E(RHF) =  -383.354958337     A.U. after   16 cycles
             Convg  =    0.2659D-09             -V/T =  2.0006
             S**2   =   0.0000
 ***** Axes restored to original set *****
 -------------------------------------------------------------------
 Center     Atomic                   Forces (Hartrees/Bohr)
 Number     Number              X              Y              Z
 -------------------------------------------------------------------
    1          6           0.000145688   -0.001099465    0.000001576
    2          6           0.000003084    0.000016863    0.000001681
    3          6          -0.001236229    0.001897324   -0.000000382
    4          6           0.001279929   -0.001870183   -0.000002980
    5          6          -0.000059775   -0.000032876   -0.000001301
    6          6          -0.000876854    0.000688097    0.000001708
    7          1           0.000948696   -0.001673038   -0.000003226
    8          1          -0.000851372   -0.001616254   -0.000001234
    9          1           0.001006306   -0.001620710   -0.000000733
   10          6           0.000052103    0.000014452    0.000004529
   11          6          -0.000130637   -0.000011737    0.000000809
   12          1          -0.000945394    0.001687667    0.000002253
   13          1          -0.001833480    0.000039483   -0.000000750
   14          6          -0.000045114    0.001011824   -0.000001380
   15          6           0.000838924   -0.000591312   -0.000001564
   16          1          -0.001008104    0.001601096   -0.000001753
   17          1           0.000871929    0.001608497    0.000002906
   18          1           0.001840300   -0.000049727   -0.000000160
 -------------------------------------------------------------------
 Cartesian Forces:  Max     0.001897324 RMS     0.000891710

 GradGradGradGradGradGradGradGradGradGradGradGradGradGradGradGradGradGrad
 Berny optimization.
 Internal  Forces:  Max     0.002761825 RMS     0.000944676
 Search for a local minimum.
 Step number   2 out of a maximum of 103
 All quantities printed in internal units (Hartrees-Bohrs-Radians)
 Update second derivatives using D2CorX and points  1  2
 Trust test= 8.83D-01 RLast= 1.61D-01 DXMaxT set to 4.24D-01
     Eigenvalues ---    0.01806   0.01817   0.01818   0.01995   0.02011
     Eigenvalues ---    0.02031   0.02050   0.02127   0.02127   0.02156
     Eigenvalues ---    0.02157   0.02189   0.02221   0.02285   0.02304
     Eigenvalues ---    0.15981   0.16000   0.16000   0.16000   0.16000
     Eigenvalues ---    0.16000   0.16000   0.16005   0.22000   0.22000
     Eigenvalues ---    0.22329   0.22743   0.24280   0.24713   0.33644
     Eigenvalues ---    0.33647   0.33655   0.33667   0.33684   0.33687
     Eigenvalues ---    0.33688   0.35404   0.37537   0.39617   0.40077
     Eigenvalues ---    0.41024   0.42512   0.42555   0.44079   0.48382
     Eigenvalues ---    0.48599   0.49807   0.526041000.000001000.00000
     Eigenvalues --- 1000.000001000.000001000.000001000.000001000.00000
     Eigenvalues --- 1000.000001000.000001000.000001000.000001000.00000
     Eigenvalues --- 1000.000001000.000001000.000001000.000001000.00000
     Eigenvalues --- 1000.000001000.000001000.000001000.000001000.00000
     Eigenvalues --- 1000.000001000.000001000.000001000.000001000.00000
     Eigenvalues --- 1000.000001000.000001000.000001000.000001000.00000
     Eigenvalues --- 1000.000001000.000001000.000001000.000001000.00000
     Eigenvalues --- 1000.000001000.000001000.000001000.000001000.00000
     Eigenvalues --- 1000.000001000.000001000.00000
 RFO step:  Lambda=-6.02603524D-05.
 Quartic linear search produced a step of -0.09962.
 Iteration  1 RMS(Cart)=  0.00362885 RMS(Int)=  0.00000082
 Iteration  2 RMS(Cart)=  0.00000105 RMS(Int)=  0.00000040
 Iteration  3 RMS(Cart)=  0.00000000 RMS(Int)=  0.00000040
 Variable       Old X    -DE/DX   Delta X   Delta X   Delta X     New X
                                 (Linear)    (Quad)   (Total)
    R1        2.56412   0.00210   0.00300   0.00047   0.00347   2.56759
    R2        2.67025   0.00276   0.00056   0.00538   0.00595   2.67620
    R3        2.02778   0.00183   0.00507  -0.00101   0.00406   2.03185
    R4        2.67957   0.00222   0.00076   0.00375   0.00451   2.68408
    R5        2.02885   0.00191   0.00503  -0.00074   0.00429   2.03314
    R6        2.66558   0.00002   0.00156  -0.00224  -0.00068   2.66490
    R7        2.67945   0.00232   0.00078   0.00393   0.00471   2.68416
    R8        2.67930   0.00232   0.00073   0.00399   0.00472   2.68403
    R9        2.67977   0.00218   0.00076   0.00366   0.00442   2.68418
   R10        2.56415   0.00209   0.00310   0.00035   0.00345   2.56760
   R11        2.02878   0.00193   0.00501  -0.00065   0.00437   2.03314
   R12        2.02776   0.00183   0.00507  -0.00098   0.00408   2.03185
   R13        2.02881   0.00192   0.00503  -0.00069   0.00434   2.03314
   R14        2.56404   0.00209   0.00303   0.00043   0.00346   2.56750
   R15        2.56388   0.00219   0.00303   0.00060   0.00363   2.56751
   R16        2.02889   0.00189   0.00503  -0.00078   0.00425   2.03314
   R17        2.67056   0.00268   0.00057   0.00520   0.00577   2.67633
   R18        2.02777   0.00183   0.00507  -0.00099   0.00407   2.03184
   R19        2.02775   0.00184   0.00507  -0.00097   0.00410   2.03185
    A1        2.09992  -0.00041   0.00010  -0.00120  -0.00110   2.09882
    A2        2.09855   0.00013   0.00071  -0.00081  -0.00010   2.09845
    A3        2.08472   0.00028  -0.00082   0.00201   0.00120   2.08591
    A4        2.10735   0.00024  -0.00040   0.00133   0.00093   2.10828
    A5        2.10091  -0.00007   0.00089  -0.00126  -0.00038   2.10054
    A6        2.07492  -0.00017  -0.00048  -0.00007  -0.00055   2.07437
    A7        2.07584   0.00019   0.00028  -0.00004   0.00023   2.07607
    A8        2.13133  -0.00035  -0.00072   0.00039  -0.00033   2.13100
    A9        2.07601   0.00016   0.00045  -0.00035   0.00010   2.07611
   A10        2.07601   0.00016   0.00046  -0.00035   0.00010   2.07611
   A11        2.07575   0.00020   0.00022   0.00007   0.00029   2.07604
   A12        2.13142  -0.00037  -0.00068   0.00028  -0.00040   2.13103
   A13        2.10735   0.00023  -0.00050   0.00143   0.00093   2.10828
   A14        2.07485  -0.00015  -0.00041  -0.00008  -0.00049   2.07436
   A15        2.10099  -0.00008   0.00091  -0.00135  -0.00044   2.10055
   A16        2.09990  -0.00041   0.00006  -0.00116  -0.00110   2.09881
   A17        2.08479   0.00028  -0.00078   0.00192   0.00114   2.08593
   A18        2.09849   0.00014   0.00071  -0.00076  -0.00004   2.09845
   A19        2.07473  -0.00014  -0.00040  -0.00002  -0.00042   2.07430
   A20        2.10740   0.00023  -0.00043   0.00133   0.00090   2.10830
   A21        2.10106  -0.00009   0.00083  -0.00131  -0.00048   2.10059
   A22        2.10746   0.00022  -0.00035   0.00118   0.00083   2.10829
   A23        2.07491  -0.00017  -0.00051  -0.00006  -0.00057   2.07434
   A24        2.10082  -0.00005   0.00086  -0.00112  -0.00026   2.10055
   A25        2.09989  -0.00040   0.00009  -0.00114  -0.00105   2.09884
   A26        2.09845   0.00014   0.00073  -0.00072   0.00000   2.09845
   A27        2.08485   0.00026  -0.00082   0.00187   0.00105   2.08590
   A28        2.09986  -0.00041   0.00002  -0.00109  -0.00107   2.09879
   A29        2.09862   0.00012   0.00077  -0.00090  -0.00013   2.09849
   A30        2.08471   0.00028  -0.00079   0.00199   0.00120   2.08590
    D1        0.00001   0.00000  -0.00002   0.00005   0.00003   0.00003
    D2        3.14159   0.00000   0.00001  -0.00001   0.00000   3.14159
    D3       -3.14157   0.00000  -0.00001   0.00000  -0.00001  -3.14158
    D4        0.00001   0.00000   0.00001  -0.00005  -0.00004  -0.00002
    D5       -0.00001   0.00000   0.00000   0.00002   0.00002   0.00001
    D6       -3.14159   0.00000   0.00001  -0.00003  -0.00002   3.14157
    D7        3.14157   0.00000  -0.00001   0.00006   0.00005  -3.14157
    D8       -0.00001   0.00000   0.00000   0.00001   0.00001   0.00000
    D9        0.00000   0.00000   0.00003  -0.00008  -0.00005  -0.00005
   D10       -3.14158   0.00000   0.00002  -0.00007  -0.00005   3.14156
   D11       -3.14158   0.00000   0.00001  -0.00003  -0.00003   3.14158
   D12        0.00002   0.00000   0.00000  -0.00001  -0.00002   0.00001
   D13       -0.00001   0.00000  -0.00002   0.00006   0.00004   0.00003
   D14       -3.14157   0.00000  -0.00001   0.00001   0.00000  -3.14157
   D15        3.14157   0.00000  -0.00001   0.00004   0.00003  -3.14158
   D16        0.00001   0.00000   0.00000  -0.00001  -0.00001   0.00000
   D17       -0.00008   0.00000  -0.00002   0.00011   0.00010   0.00001
   D18        3.14155   0.00000   0.00000   0.00002   0.00002   3.14157
   D19        3.14152   0.00000  -0.00002   0.00013   0.00010  -3.14156
   D20       -0.00003   0.00000   0.00000   0.00003   0.00003   0.00000
   D21        0.00001   0.00000  -0.00001   0.00000   0.00000   0.00001
   D22       -3.14155   0.00000   0.00002  -0.00009  -0.00008   3.14156
   D23        3.14156   0.00000  -0.00001   0.00006   0.00004  -3.14158
   D24        0.00000   0.00000   0.00001  -0.00004  -0.00003  -0.00002
   D25        0.00002   0.00000   0.00000  -0.00002  -0.00002   0.00000
   D26       -3.14157   0.00000  -0.00001   0.00000   0.00000  -3.14157
   D27       -3.14153   0.00000   0.00000  -0.00007  -0.00006   3.14159
   D28        0.00006   0.00000   0.00000  -0.00005  -0.00005   0.00001
   D29        0.00000   0.00000   0.00002  -0.00004  -0.00003  -0.00003
   D30        3.14158   0.00000   0.00000   0.00001   0.00001  -3.14159
   D31        3.14156   0.00000  -0.00001   0.00005   0.00005  -3.14158
   D32       -0.00005   0.00000  -0.00002   0.00011   0.00009   0.00004
   D33        0.00001   0.00000   0.00001  -0.00004  -0.00002  -0.00001
   D34       -3.14158   0.00000   0.00000   0.00000   0.00000  -3.14158
   D35       -3.14154   0.00000   0.00003  -0.00013  -0.00010   3.14155
   D36        0.00005   0.00000   0.00002  -0.00009  -0.00008  -0.00002
   D37       -0.00004   0.00000   0.00001   0.00002   0.00003  -0.00001
   D38        3.14153   0.00000  -0.00002   0.00011   0.00009  -3.14156
   D39        3.14155   0.00000   0.00001   0.00000   0.00001   3.14156
   D40       -0.00007   0.00000  -0.00002   0.00010   0.00008   0.00001
   D41        0.00003   0.00000  -0.00002   0.00001  -0.00001   0.00002
   D42       -3.14157   0.00000   0.00000  -0.00003  -0.00003   3.14159
   D43       -3.14154   0.00000   0.00001  -0.00009  -0.00007   3.14157
   D44        0.00005   0.00000   0.00003  -0.00012  -0.00009  -0.00004
         Item               Value     Threshold  Converged?
 Maximum Force            0.002762     0.000450     NO 
 RMS     Force            0.000945     0.000300     NO 
 Maximum Displacement     0.012729     0.001800     NO 
 RMS     Displacement     0.003629     0.001200     NO 
 Predicted change in Energy=-8.801745D-05
 GradGradGradGradGradGradGradGradGradGradGradGradGradGradGradGradGradGrad

                          Input orientation:                          
 ---------------------------------------------------------------------
 Center     Atomic     Atomic              Coordinates (Angstroms)
 Number     Number      Type              X           Y           Z
 ---------------------------------------------------------------------
    1          6             0       -5.399743   -1.276854    0.000336
    2          6             0       -4.041033   -1.274530    0.000136
    3          6             0       -3.315939   -0.053204    0.000245
    4          6             0       -4.028540    1.163708    0.000504
    5          6             0       -5.448443    1.129009    0.000687
    6          6             0       -6.115348   -0.054773    0.000621
    7          1             0       -1.353979   -0.947902   -0.000153
    8          1             0       -5.939528   -2.206748    0.000262
    9          1             0       -3.495788   -2.202026   -0.000077
   10          6             0       -1.895968   -0.018497    0.000076
   11          6             0       -3.303381    2.385062    0.000583
   12          1             0       -5.990482    2.058385    0.000914
   13          1             0       -7.190441   -0.070476    0.000759
   14          6             0       -1.944714    2.387368    0.000409
   15          6             0       -1.229071    1.165228    0.000164
   16          1             0       -3.848630    3.312559    0.000801
   17          1             0       -1.404917    3.317254    0.000498
   18          1             0       -0.153979    1.180959    0.000027
 ---------------------------------------------------------------------
                    Distance matrix (angstroms):
                    1          2          3          4          5
     1  C    0.000000
     2  C    1.358712   0.000000
     3  C    2.416518   1.420352   0.000000
     4  C    2.799382   2.438270   1.410203   0.000000
     5  C    2.406356   2.785283   2.438278   1.420327   0.000000
     6  C    1.416182   2.406364   2.799409   2.416498   1.358714
     7  H    4.059115   2.706833   2.156333   3.407664   4.591099
     8  H    1.075207   2.115021   3.394256   3.874512   3.371712
     9  H    2.116834   1.075891   2.156335   3.407637   3.861172
    10  C    3.722889   2.485744   1.420395   2.438334   3.733209
    11  C    4.219522   3.733195   2.438298   1.420409   2.485751
    12  H    3.387151   3.861175   3.407637   2.156308   1.075894
    13  H    2.159154   3.371723   3.874540   3.394234   2.115023
    14  C    5.036244   4.219485   2.799402   2.416542   3.722847
    15  C    4.833040   3.722842   2.416526   2.799470   4.219528
    16  H    4.844447   4.591122   3.407656   2.156370   2.706897
    17  H    6.088059   5.294675   3.874531   3.394283   4.597664
    18  H    5.793003   4.597675   3.394282   3.874600   5.294719
                    6          7          8          9         10
     6  C    0.000000
     7  H    4.844410   0.000000
     8  H    2.159145   4.755202   0.000000
     9  H    3.387150   2.481969   2.443744   0.000000
    10  C    4.219536   1.075893   4.597697   2.706884   0.000000
    11  C    3.722896   3.861194   5.294713   4.591122   2.785302
    12  H    2.116844   5.525841   4.265438   4.937064   4.591131
    13  H    1.075208   5.902047   2.475569   4.265438   5.294728
    14  C    4.833037   3.387180   6.088057   4.844416   2.406359
    15  C    5.036280   2.116819   5.792981   4.059114   1.358660
    16  H    4.059180   4.937085   5.902085   5.525861   3.861194
    17  H    5.792989   4.265460   7.146838   5.902049   3.371701
    18  H    6.088100   2.443778   6.704412   4.755237   2.114999
                   11         12         13         14         15
    11  C    0.000000
    12  H    2.706886   0.000000
    13  H    4.597706   2.443758   0.000000
    14  C    1.358670   4.059122   5.792983   0.000000
    15  C    2.406400   4.844458   6.088095   1.416252   0.000000
    16  H    1.075893   2.482032   4.755274   2.116808   3.387199
    17  H    2.114981   4.755224   6.704401   1.075206   2.159198
    18  H    3.371736   5.902089   7.146880   2.159202   1.075207
                   16         17         18
    16  H    0.000000
    17  H    2.443717   0.000000
    18  H    4.265462   2.475602   0.000000
 Stoichiometry    C10H8
 Framework group  C1[X(C10H8)]
 Deg. of freedom    48
 Full point group                 C1
 Largest Abelian subgroup         C1      NOp   1
 Largest concise Abelian subgroup C1      NOp   1
                         Standard orientation:                         
 ---------------------------------------------------------------------
 Center     Atomic     Atomic              Coordinates (Angstroms)
 Number     Number      Type              X           Y           Z
 ---------------------------------------------------------------------
    1          6             0       -2.416514   -0.708106    0.000003
    2          6             0       -1.242843   -1.392647   -0.000021
    3          6             0        0.000002   -0.705090    0.000004
    4          6             0       -0.000039    0.705113   -0.000007
    5          6             0       -1.242875    1.392636   -0.000004
    6          6             0       -2.416535    0.708076    0.000017
    7          1             0        1.240987   -2.468532   -0.000010
    8          1             0       -3.352189   -1.237807   -0.000005
    9          1             0       -1.240982   -2.468536   -0.000028
   10          6             0        1.242900   -1.392641    0.000013
   11          6             0        1.242877    1.392661   -0.000013
   12          1             0       -1.241019    2.468528    0.000018
   13          1             0       -3.352219    1.237761    0.000018
   14          6             0        2.416501    0.708126   -0.000011
   15          6             0        2.416526   -0.708126    0.000015
   16          1             0        1.241013    2.468553   -0.000001
   17          1             0        3.352182    1.237814    0.000012
   18          1             0        3.352223   -1.237788    0.000015
 ---------------------------------------------------------------------
 Rotational constants (GHZ):      3.1618543      1.2449116      0.8932240
 Standard basis: 6-31G(d) (6D, 7F)
 There are   166 symmetry adapted basis functions of A   symmetry.
 Integral buffers will be    262144 words long.
 Raffenetti 1 integral format.
 Two-electron integral symmetry is turned on.
   166 basis functions,   312 primitive gaussians,   166 cartesian basis functions
    34 alpha electrons       34 beta electrons
       nuclear repulsion energy       460.3321798577 Hartrees.
 NAtoms=   18 NActive=   18 NUniq=   18 SFac= 7.50D-01 NAtFMM=   80 NAOKFM=F Big=F
 One-electron integrals computed using PRISM.
 NBasis=   166 RedAO= T  NBF=   166
 NBsUse=   166 1.00D-06 NBFU=   166
 Initial guess read from the read-write file:
 Initial guess orbital symmetries:
       Occupied  (A) (A) (A) (A) (A) (A) (A) (A) (A) (A) (A) (A)
                 (A) (A) (A) (A) (A) (A) (A) (A) (A) (A) (A) (A)
                 (A) (A) (A) (A) (A) (A) (A) (A) (A) (A)
       Virtual   (A) (A) (A) (A) (A) (A) (A) (A) (A) (A) (A) (A)
                 (A) (A) (A) (A) (A) (A) (A) (A) (A) (A) (A) (A)
                 (A) (A) (A) (A) (A) (A) (A) (A) (A) (A) (A) (A)
                 (A) (A) (A) (A) (A) (A) (A) (A) (A) (A) (A) (A)
                 (A) (A) (A) (A) (A) (A) (A) (A) (A) (A) (A) (A)
                 (A) (A) (A) (A) (A) (A) (A) (A) (A) (A) (A) (A)
                 (A) (A) (A) (A) (A) (A) (A) (A) (A) (A) (A) (A)
                 (A) (A) (A) (A) (A) (A) (A) (A) (A) (A) (A) (A)
                 (A) (A) (A) (A) (A) (A) (A) (A) (A) (A) (A) (A)
                 (A) (A) (A) (A) (A) (A) (A) (A) (A) (A) (A) (A)
                 (A) (A) (A) (A) (A) (A) (A) (A) (A) (A) (A) (A)
 Requested convergence on RMS density matrix=1.00D-08 within 128 cycles.
 Requested convergence on MAX density matrix=1.00D-06.
 Requested convergence on             energy=1.00D-06.
 No special actions if energy rises.
 SCF Done:  E(RHF) =  -383.355044142     A.U. after   13 cycles
             Convg  =    0.4459D-08             -V/T =  2.0009
             S**2   =   0.0000
 ***** Axes restored to original set *****
 -------------------------------------------------------------------
 Center     Atomic                   Forces (Hartrees/Bohr)
 Number     Number              X              Y              Z
 -------------------------------------------------------------------
    1          6           0.000534359   -0.000027477   -0.000002515
    2          6          -0.000394154    0.000011730    0.000004766
    3          6          -0.000419046    0.000715765   -0.000003524
    4          6           0.000460417   -0.000700249    0.000000553
    5          6          -0.000201581   -0.000348152    0.000003527
    6          6           0.000241273    0.000482459   -0.000002562
    7          1           0.000045579   -0.000144368    0.000001846
    8          1          -0.000068171   -0.000086483    0.000000414
    9          1           0.000108226   -0.000109004   -0.000000517
   10          6           0.000159925    0.000319917   -0.000002470
   11          6           0.000363250   -0.000025966    0.000000917
   12          1          -0.000042198    0.000145055   -0.000001479
   13          1          -0.000108196   -0.000018220    0.000001027
   14          6          -0.000503319    0.000004724    0.000004880
   15          6          -0.000248087   -0.000431475   -0.000002592
   16          1          -0.000106326    0.000108136   -0.000001033
   17          1           0.000069717    0.000086903   -0.000001572
   18          1           0.000108332    0.000016703    0.000000336
 -------------------------------------------------------------------
 Cartesian Forces:  Max     0.000715765 RMS     0.000242957

 GradGradGradGradGradGradGradGradGradGradGradGradGradGradGradGradGradGrad
 Berny optimization.
 Internal  Forces:  Max     0.000638422 RMS     0.000116127
 Search for a local minimum.
 Step number   3 out of a maximum of 103
 All quantities printed in internal units (Hartrees-Bohrs-Radians)
 Update second derivatives using D2CorX and points  1  2  3
 Trust test= 9.75D-01 RLast= 1.89D-02 DXMaxT set to 4.24D-01
     Eigenvalues ---    0.01806   0.01817   0.01818   0.01995   0.02011
     Eigenvalues ---    0.02031   0.02050   0.02127   0.02127   0.02156
     Eigenvalues ---    0.02156   0.02189   0.02221   0.02285   0.02304
     Eigenvalues ---    0.15974   0.16000   0.16000   0.16000   0.16000
     Eigenvalues ---    0.16000   0.16000   0.16009   0.22000   0.22000
     Eigenvalues ---    0.22329   0.22876   0.24280   0.24714   0.33640
     Eigenvalues ---    0.33644   0.33647   0.33656   0.33684   0.33687
     Eigenvalues ---    0.33688   0.35094   0.36102   0.39622   0.40077
     Eigenvalues ---    0.40861   0.41030   0.42555   0.43344   0.48383
     Eigenvalues ---    0.48599   0.49811   0.593221000.000001000.00000
     Eigenvalues --- 1000.000001000.000001000.000001000.000001000.00000
     Eigenvalues --- 1000.000001000.000001000.000001000.000001000.00000
     Eigenvalues --- 1000.000001000.000001000.000001000.000001000.00000
     Eigenvalues --- 1000.000001000.000001000.000001000.000001000.00000
     Eigenvalues --- 1000.000001000.000001000.000001000.000001000.00000
     Eigenvalues --- 1000.000001000.000001000.000001000.000001000.00000
     Eigenvalues --- 1000.000001000.000001000.000001000.000001000.00000
     Eigenvalues --- 1000.000001000.000001000.000001000.000001000.00000
     Eigenvalues --- 1000.000001000.000001000.00000
 RFO step:  Lambda=-3.08295115D-06.
 Quartic linear search produced a step of  0.00792.
 Iteration  1 RMS(Cart)=  0.00035244 RMS(Int)=  0.00000005
 Iteration  2 RMS(Cart)=  0.00000008 RMS(Int)=  0.00000000
 Variable       Old X    -DE/DX   Delta X   Delta X   Delta X     New X
                                 (Linear)    (Quad)   (Total)
    R1        2.56759  -0.00038   0.00003  -0.00073  -0.00070   2.56690
    R2        2.67620   0.00018   0.00005   0.00050   0.00055   2.67674
    R3        2.03185   0.00011   0.00003   0.00034   0.00037   2.03222
    R4        2.68408   0.00000   0.00004   0.00004   0.00007   2.68415
    R5        2.03314   0.00015   0.00003   0.00046   0.00050   2.03364
    R6        2.66490  -0.00064  -0.00001  -0.00158  -0.00158   2.66331
    R7        2.68416  -0.00001   0.00004   0.00002   0.00005   2.68421
    R8        2.68403   0.00002   0.00004   0.00008   0.00012   2.68415
    R9        2.68418  -0.00002   0.00003  -0.00001   0.00003   2.68421
   R10        2.56760  -0.00038   0.00003  -0.00073  -0.00070   2.56690
   R11        2.03314   0.00015   0.00003   0.00046   0.00049   2.03364
   R12        2.03185   0.00011   0.00003   0.00034   0.00037   2.03222
   R13        2.03314   0.00015   0.00003   0.00046   0.00050   2.03364
   R14        2.56750  -0.00035   0.00003  -0.00067  -0.00064   2.56685
   R15        2.56751  -0.00036   0.00003  -0.00069  -0.00066   2.56685
   R16        2.03314   0.00015   0.00003   0.00046   0.00049   2.03364
   R17        2.67633   0.00015   0.00005   0.00043   0.00048   2.67680
   R18        2.03184   0.00011   0.00003   0.00034   0.00038   2.03222
   R19        2.03185   0.00011   0.00003   0.00034   0.00037   2.03222
    A1        2.09882  -0.00001  -0.00001   0.00000  -0.00001   2.09881
    A2        2.09845   0.00002   0.00000   0.00009   0.00009   2.09854
    A3        2.08591  -0.00001   0.00001  -0.00009  -0.00008   2.08584
    A4        2.10828  -0.00006   0.00001  -0.00028  -0.00027   2.10800
    A5        2.10054   0.00007   0.00000   0.00038   0.00038   2.10091
    A6        2.07437  -0.00001   0.00000  -0.00010  -0.00010   2.07427
    A7        2.07607   0.00008   0.00000   0.00030   0.00030   2.07637
    A8        2.13100  -0.00016   0.00000  -0.00056  -0.00056   2.13045
    A9        2.07611   0.00007   0.00000   0.00026   0.00026   2.07637
   A10        2.07611   0.00007   0.00000   0.00026   0.00026   2.07637
   A11        2.07604   0.00009   0.00000   0.00032   0.00032   2.07636
   A12        2.13103  -0.00016   0.00000  -0.00057  -0.00058   2.13045
   A13        2.10828  -0.00007   0.00001  -0.00028  -0.00028   2.10800
   A14        2.07436   0.00000   0.00000  -0.00009  -0.00009   2.07427
   A15        2.10055   0.00007   0.00000   0.00037   0.00037   2.10092
   A16        2.09881  -0.00001  -0.00001   0.00001   0.00000   2.09881
   A17        2.08593  -0.00001   0.00001  -0.00010  -0.00009   2.08584
   A18        2.09845   0.00002   0.00000   0.00009   0.00009   2.09854
   A19        2.07430   0.00000   0.00000  -0.00006  -0.00006   2.07424
   A20        2.10830  -0.00007   0.00001  -0.00030  -0.00029   2.10801
   A21        2.10059   0.00007   0.00000   0.00036   0.00035   2.10094
   A22        2.10829  -0.00007   0.00001  -0.00029  -0.00028   2.10801
   A23        2.07434   0.00000   0.00000  -0.00009  -0.00009   2.07425
   A24        2.10055   0.00007   0.00000   0.00038   0.00038   2.10093
   A25        2.09884  -0.00002  -0.00001  -0.00001  -0.00002   2.09882
   A26        2.09845   0.00003   0.00000   0.00010   0.00010   2.09855
   A27        2.08590  -0.00001   0.00001  -0.00009  -0.00008   2.08582
   A28        2.09879  -0.00001  -0.00001   0.00003   0.00002   2.09881
   A29        2.09849   0.00002   0.00000   0.00007   0.00007   2.09856
   A30        2.08590  -0.00001   0.00001  -0.00010  -0.00009   2.08581
    D1        0.00003   0.00000   0.00000  -0.00005  -0.00005  -0.00002
    D2        3.14159   0.00000   0.00000   0.00001   0.00001  -3.14159
    D3       -3.14158   0.00000   0.00000  -0.00002  -0.00002   3.14158
    D4       -0.00002   0.00000   0.00000   0.00003   0.00003   0.00001
    D5        0.00001   0.00000   0.00000  -0.00001  -0.00001   0.00000
    D6        3.14157   0.00000   0.00000   0.00003   0.00003  -3.14158
    D7       -3.14157   0.00000   0.00000  -0.00003  -0.00003   3.14159
    D8        0.00000   0.00000   0.00000   0.00000   0.00000   0.00000
    D9       -0.00005   0.00000   0.00000   0.00007   0.00007   0.00002
   D10        3.14156   0.00000   0.00000   0.00004   0.00004  -3.14158
   D11        3.14158   0.00000   0.00000   0.00002   0.00002  -3.14159
[...]
 00394,0.0000194,-0.0000415,0.050048,0.0367244,0.1247975,0.0000205,0.12
 47984,-0.1032995,-0.0000391,0.0000225,-0.0000354,0.0500486,0.0260107,-
 0.0495126,-0.0000319,-0.152261,0.0785793,0.0000564,-0.0000437,0.000036
 3,-0.1517146,0.1858056,-0.1144158,-0.0000563,-0.0536924,-0.109133,0.00
 00111,-0.0000541,0.000018,-0.1381258,0.0127159,0.0497763,0.0000236,0.1
 008201,-0.0778066,-0.0000443,0.0000296,-0.0000354,0.1306457,0.0100346,
 -0.0902678,0.000002,-0.0991149,-0.0929342,-0.000021,0.0000014,-0.00002
 03,0.1341694,0.0081442,0.1033863,0.0000306,0.0523518,-0.0732275,-0.000
 0352,0.000027,-0.0000477,0.1306464,0.0260419,-0.0494834,-0.0000312,-0.
 1522472,0.0785773,0.0000538,-0.0000448,0.0000364,-0.1517125,-0.0200956
 ,-0.1263593,-0.0000348,-0.0235955,0.1247126,0.0000439,-0.0000159,0.000
 0549,-0.1517127,0.0127196,0.0497845,0.0000232,0.100819,-0.0778033,-0.0
 000449,0.0000283,-0.0000358,0.1306466,-0.1490959,-0.0098225,0.0000341,
 -0.0009761,0.0661977,-0.0000101,0.0000391,-0.0000081,0.1341695,-0.1102
 55,0.1124257,0.0000131,0.05168,0.1869323,0.0000434,-0.000005,0.0000307
 ,-0.138128,0.1857976,-0.1144427,-0.0000606,-0.053697,-0.1091228,0.0000
 125,-0.0000457,0.0000254,-0.1381264,0.0081391,0.1033859,0.000031,0.052
 3452,-0.0732315,-0.0000374,0.0000215,-0.0000429,0.1306458,0.0100284,-0
 .0902679,0.0000023,-0.0991127,-0.092935,-0.0000224,0.0000069,-0.000018
 7,0.1341702,-0.1490957,-0.0098226,0.0000369,-0.0009802,0.0661924,-0.00
 00104,0.0000337,-0.000012,0.1341705\Polar=132.4593672,16.6910491,113.7
 278982,-0.0105009,0.0099979,32.372168\HyperPolar=0.0038474,0.002692,0.
 0012707,0.000542,-0.0000623,0.0000192,-0.0000949,-0.0000374,-0.0000189
 ,0.0000186\PG=C01 [X(C10H8)]\NImag=0\\0.83308763,0.06577378,0.77298352
 ,-0.00007353,0.00008140,0.16345322,-0.45432571,-0.04737087,0.00003934,
 0.84866630,0.04422263,-0.16502729,-0.00001903,-0.06518189,0.76259215,0
 .00005318,-0.00000712,-0.07480038,-0.00009723,0.00009520,0.16408862,-0
 .06081007,-0.01645486,0.00000678,-0.15606457,-0.08120277,-0.00000094,0
 .76116725,-0.08081178,0.04468559,0.00001583,-0.03651241,-0.28305587,-0
 .00002355,0.00698105,0.75337642,-0.00000303,0.00000714,0.00809760,0.00
 000589,-0.00001782,-0.07847323,-0.00007601,0.00008139,0.18904297,-0.07
 269716,0.04444654,0.00001468,0.08646806,0.02832378,-0.00000626,-0.2293
 4140,0.05285029,0.00002734,0.76120102,0.00602585,-0.00211868,0.0000002
 2,0.00197896,-0.03700228,-0.00000706,0.05287111,-0.28866351,-0.0000372
 7,0.00696316,0.75334190,0.00000933,-0.00000486,-0.00818878,-0.00001005
 ,-0.00000985,0.00715922,0.00002673,-0.00003780,-0.08619626,-0.00007434
 ,0.00008399,0.18904296,0.09095448,-0.03468816,-0.00001536,-0.07191156,
 -0.03809419,0.00000291,0.00549603,0.07375890,0.00001088,-0.30288175,0.
 00117964,0.00003013,0.72756969,0.03729346,-0.06839704,-0.00001658,-0.0
 4410603,-0.02578717,0.00000285,0.04741417,0.04396973,-0.00000093,0.045
 86998,-0.13623867,-0.00001448,0.00276807,0.88368802,-0.00000477,-0.000
 00712,0.00995948,0.00000183,0.00000188,-0.00595455,0.00000757,-0.00000
 415,0.00715918,0.00003650,-0.00000851,-0.07847312,-0.00007198,0.000108
 43,0.16408857,-0.19584937,0.11427740,0.00003172,-0.02912662,0.03269191
 ,0.00000995,0.00251986,0.00224065,-0.00000107,-0.02208559,-0.03818406,
 -0.00000210,-0.23564683,-0.17007671,-0.00000554,0.84351604,0.02028902,
 -0.27135726,-0.00003085,0.10467354,0.05168409,-0.00000738,-0.03618003,
 -0.07733546,-0.00000515,-0.10254110,0.00596120,0.00001285,-0.07848328,
 -0.38370651,-0.00003751,0.05992369,0.76255621,0.00001814,-0.00004319,-
 0.07724306,0.00002030,0.00000220,0.00995944,-0.00000677,-0.00001069,-0
 .00818879,-0.00001132,0.00000472,0.00809755,0.00000810,-0.00002580,-0.
 07480028,-0.00007741,0.00008262,0.16345314,0.00008751,-0.00016335,-0.0
 0000005,0.00179039,0.00174729,-0.00000039,-0.01141254,0.03290703,0.000
 00690,-0.00651870,-0.00225504,0.00000124,0.00000101,0.00195653,0.00000
 029,-0.00003253,-0.00008905,-0.00000003,0.15276365,0.00054925,0.000105
 46,-0.00000004,-0.00117223,0.00043925,0.00000069,-0.00192277,0.0046053
 6,0.00000031,-0.00075510,0.00109690,-0.00000051,-0.00058176,-0.0000136
 9,0.00000008,-0.00001139,0.00046268,0.00000009,-0.14278317,0.31473323,
 0.,0.00000006,-0.00006529,-0.00000082,0.00000034,-0.00331502,0.0000016
 8,-0.00000438,0.00424867,0.00000150,-0.00000039,0.00541108,-0.00000005
 ,-0.00000025,-0.00004496,0.,0.00000005,-0.00010215,-0.00003675,0.00005
 998,0.03070165,-0.14988422,-0.13152081,-0.00000654,-0.01108178,-0.0347
 5388,-0.00000292,-0.00659621,0.00221300,0.00000244,-0.00092755,0.00028
 511,0.00000012,-0.00173237,0.00384682,0.00000147,0.01526598,0.01740429
 ,0.00000114,-0.00003157,0.00006728,0.00000003,0.15261410,-0.13241854,-
 0.30224117,-0.00002098,0.00238163,0.00554516,-0.00000036,0.00098569,0.
 00157190,-0.00000146,0.00095435,0.00047433,0.,0.00477460,-0.00381173,-
 0.00000199,-0.01926707,-0.01928527,-0.00000097,-0.00003744,0.00001600,
 -0.00000002,0.14368258,0.31674267,-0.00000664,-0.00002100,-0.04635957,
 0.00000251,0.00000425,0.00574776,0.00000227,-0.00000163,0.01067848,0.0
 0000012,0.00000012,-0.00035527,0.00000171,-0.00000181,0.00553168,-0.00
 000420,-0.00000574,0.00395187,0.00000002,-0.00000003,0.00017654,0.0000
 0601,0.00002394,0.03134549,-0.01120885,0.03459192,0.00000735,-0.150007
 62,0.13133773,0.00003317,0.01399290,-0.01617789,-0.00000369,-0.0020109
 8,-0.00328438,0.00000052,-0.00065743,-0.00067918,-0.00000005,-0.006419
 27,-0.00196229,0.00000179,-0.00022972,0.00007592,0.00000007,0.00115089
 ,-0.00057434,-0.00000107,0.15407530,-0.00266399,0.00558653,0.00000029,
 0.13174699,-0.29845540,-0.00005458,0.01865177,-0.02079927,-0.00000614,
 -0.00478409,-0.00341038,-0.00000063,-0.00088558,0.00020859,0.00000020,
 -0.00059072,0.00155591,-0.00000118,-0.00135390,0.00048735,0.00000021,0
 .00055549,0.00109731,0.00000105,-0.14351942,0.31342327,0.00000149,-0.0
 0000424,0.00598400,0.00003362,-0.00005496,-0.04552676,0.00000131,-0.00
 000141,0.00424879,0.00000036,-0.00000080,0.00541228,0.00000004,0.00000
 015,-0.00035301,0.00000188,-0.00000119,0.01003223,-0.00000014,0.000000
 02,0.00028454,-0.00000085,0.00000120,-0.00649994,-0.00003736,0.0000605
 1,0.03070152,0.03602346,-0.02049796,-0.00000677,-0.05705575,-0.0324171
 4,0.00000336,-0.30282942,0.00119148,0.00003022,0.00549820,0.07373681,0
 .00001156,-0.02722994,-0.01134777,0.00000256,-0.00147436,0.03434734,0.
 00000521,-0.15062821,0.13168633,0.00003301,0.00032528,-0.00002220,0.00
 000003,0.00100803,0.00218624,-0.00000022,0.72752340,0.01391688,-0.0155
 0454,-0.00000492,-0.05775539,-0.00645877,0.00000610,0.04586173,-0.1362
 3258,-0.00001451,0.04741439,0.04395885,-0.00000065,-0.01134762,-0.0143
 7438,-0.00000175,-0.00181251,0.01602302,0.00000269,0.13209542,-0.29783
 280,-0.00005351,-0.00169934,-0.00006770,0.00000016,-0.00073340,0.00122
 143,0.00000077,0.00281074,0.88374932,-0.00000184,-0.00000035,0.0061525
 2,-0.00000019,0.00000262,0.00436657,0.00003694,-0.00000844,-0.07847648
 ,0.00000727,-0.00000436,0.00715823,0.00000274,-0.00000172,0.00668693,-
 0.00000025,-0.00000200,-0.00052574,0.00003302,-0.00005382,-0.04552722,
 -0.00000025,-0.00000004,0.00020315,-0.00000066,0.00000037,-0.00331592,
 -0.00007405,0.00010581,0.16408785,0.02571756,-0.01707051,-0.00000587,-
 0.02713821,-0.01139913,0.00000284,0.08645110,0.00198974,-0.00001049,-0
 .15604693,-0.03650265,0.00000491,-0.05705633,-0.05775484,-0.00000094,-
 0.00597403,0.03748273,0.00000717,-0.00066637,-0.00067384,0.00000006,0.
 00047705,-0.00020547,-0.00000018,0.00057642,0.00163353,0.00000016,-0.0
 7189529,-0.04409777,0.00000218,0.84873942,0.01908931,-0.01116874,-0.00
 000403,-0.01139913,-0.01446614,-0.00000162,0.02831191,-0.03699438,-0.0
 0001045,-0.08117228,-0.28301556,-0.00002022,-0.03241644,-0.00645772,0.
 00000237,0.00306782,0.02649284,0.00000261,-0.00088047,0.00021772,0.000
 00030,0.00019814,-0.00001682,0.00000012,-0.00090472,-0.00058918,0.0000
 0007,-0.03808354,-0.02578098,0.00000193,-0.06520549,0.76253948,-0.0000
 0041,0.00000055,-0.00052573,0.00000259,-0.00000174,0.00668689,-0.00000
 605,-0.00000668,0.00715835,-0.00000206,-0.00002615,-0.07847639,0.00000
 299,0.00000591,0.00436647,0.00000204,-0.00000168,0.00615252,-0.0000000
 9,0.00000018,-0.00035304,-0.00000014,0.00000016,-0.00090100,-0.0000002
 2,-0.00000029,-0.00004495,0.00000292,0.00000262,-0.00595348,-0.0000972
 7,0.00009711,0.16408719,-0.00144334,-0.00338283,0.00000093,-0.00066656
 ,-0.00088046,-0.00000008,-0.00651854,-0.00225479,0.00000122,-0.0114121
 8,0.03290717,0.00000694,-0.15063491,0.13209879,0.00003314,0.01519011,-
 0.01747699,-0.00000379,-0.00059869,-0.00001792,0.00000010,0.00052021,-
 0.00088524,-0.00000018,0.00010799,0.00013620,-0.00000015,0.00000098,0.
 00195643,0.00000028,0.00179037,0.00174721,-0.00000041,0.15277005,-0.00
 475439,-0.00342002,-0.00000144,-0.00067406,0.00021772,0.00000018,-0.00
 075510,0.00109718,-0.00000054,-0.00192256,0.00460581,0.00000029,0.1316
 8951,-0.29782774,-0.00005451,0.01977889,-0.02081240,-0.00000654,-0.000
 01791,-0.00000477,-0.00000003,0.00092605,-0.00123039,-0.00000031,0.000
 10930,-0.00002976,0.00000017,-0.00058181,-0.00001371,0.00000009,-0.001
 17232,0.00043915,0.00000071,-0.14278690,0.31472808,0.00000068,-0.00000
 164,0.01003223,-0.00000012,0.00000021,-0.00035301,0.00000150,-0.000000
 25,0.00541229,0.00000194,-0.00000428,0.00424880,0.00003288,-0.00005432
 ,-0.04552684,0.00000187,-0.00000195,0.00598401,0.00000010,-0.00000002,
 0.00017421,0.00000009,-0.00000010,0.00009987,-0.00000016,0.00000016,-0
 .00125566,-0.00000011,-0.00000026,-0.00004495,-0.00000086,0.00000033,-
 0.00331592,-0.00003694,0.00006069,0.03070158,-0.01180659,-0.00407611,0
 .00000142,0.00036542,0.00359748,0.00000120,0.00066758,0.00005929,-0.00
 000013,0.00098101,-0.00326603,0.00000075,-0.01225124,0.00303790,0.0000
 0277,-0.37839601,-0.00419671,0.00004224,-0.00000129,0.00002710,0.,0.00
 091773,0.00063310,-0.00000044,-0.00079378,-0.00014793,0.00000008,0.000
 09831,0.00000705,-0.00000013,-0.00070826,0.00055774,0.00000021,0.00110
 209,-0.00054696,-0.00000106,0.40007567,0.03259530,0.00778726,-0.000003
 61,0.00266970,-0.00590952,-0.00000204,-0.00060995,-0.00112080,-0.00000
 003,-0.00203875,-0.00600532,-0.00000229,-0.03409752,0.00671476,0.00000
 455,-0.00329908,-0.07373036,-0.00000374,-0.00009990,0.00003324,0.00000
 001,-0.00093436,0.00108677,0.00000075,0.00166336,0.00008359,-0.0000001
 9,0.00041066,0.00036191,0.00000014,-0.00111939,0.00096586,0.00000027,0
 .00058288,0.00114611,0.00000109,0.00482757,0.06928196,0.00000664,0.000
 00125,0.00395190,0.00000119,-0.00000205,0.00553169,-0.00000025,-0.0000
 0020,-0.00035527,0.00000088,-0.00000221,0.01067848,-0.00000295,-0.0000
 0024,0.00574773,0.00004269,-0.00000370,-0.04635945,0.,0.,0.00004957,-0
 .00000064,0.00000053,-0.00313792,0.00000035,0.00000002,0.00009986,-0.0
 0000003,0.00000022,-0.00090100,-0.00000001,0.00000009,0.00020316,-0.00
 000088,0.00000123,-0.00649994,-0.00004686,0.00000509,0.03134537,-0.028
 13418,0.01630155,0.00000602,0.02571787,0.01908945,-0.00000070,-0.07267
 968,0.00601517,0.00000958,-0.06081128,-0.08078992,-0.00000346,0.036024
 20,0.01391671,-0.00000160,0.00046460,-0.03474361,-0.00000520,-0.001443
 47,-0.00475450,0.00000064,-0.00031469,0.00009893,0.00000005,0.00030130
 ,-0.00027627,-0.00000012,0.09093802,0.03728422,-0.00000500,-0.45441436
 ,0.04421398,0.00005507,0.00008758,0.00054926,0.00000007,-0.00016273,-0
 .00048737,-0.00000020,0.83316278,0.01630168,-0.01161937,-0.00000380,-0
 .01707068,-0.01116928,0.00000063,0.04443631,-0.00211141,-0.00000516,-0
 .01645421,0.04467466,0.00000763,-0.02049854,-0.01550537,-0.00000067,0.
 00009534,0.01990703,0.00000297,-0.00338255,-0.00341950,-0.00000152,0.0
 0026318,-0.00005796,-0.00000004,-0.00019870,0.00012885,0.00000009,-0.0
 3467771,-0.06839126,-0.00000741,-0.04736032,-0.16501926,-0.00000714,-0
 .00016339,0.00010544,0.00000003,-0.00032525,-0.00027192,0.00000012,0.0
 6579522,0.77292701,0.00000624,-0.00000400,0.00010387,-0.00000613,-0.00
 000416,-0.00052565,0.00001535,0.00000008,-0.00818904,0.00000675,0.0000
 1633,0.00809725,-0.00000715,-0.00000517,0.00615117,0.00000004,0.000007
 66,0.00011144,0.00000100,-0.00000132,0.01003332,0.00000010,-0.00000005
 ,0.00015942,-0.00000008,0.00000006,-0.00010218,-0.00001616,-0.00001670
 ,0.00995935,0.00004156,-0.00001950,-0.07479542,-0.00000004,-0.00000005
 ,-0.00006522,-0.00000012,0.00000014,-0.00072055,-0.00007847,0.00008413
 ,0.16345184,0.00046501,0.00009509,-0.00000002,-0.00597489,0.00306808,0
 .00000211,-0.02208480,-0.03818453,-0.00000148,0.00252083,0.00223970,-0
 .00000106,-0.00147474,-0.00181235,-0.00000019,-0.00166043,0.00144671,0
 .00000043,0.01519019,0.01977841,0.00000166,-0.00059256,-0.00008406,-0.
 00000005,0.00026584,-0.00026343,-0.00000010,-0.23566169,-0.17010622,-0
 .00000439,-0.02912523,0.03269263,0.00001022,-0.00003255,-0.00001136,0.
 ,0.00003509,0.00006690,0.00000004,-0.19583174,0.11424698,0.00003398,0.
 84351194,-0.03474378,0.01990665,0.00000737,0.03748324,0.02649357,-0.00
 000203,-0.10252017,0.00594833,0.00001349,-0.03618152,-0.07731144,-0.00
 000578,0.03434779,0.01602325,-0.00000179,0.00144652,-0.03809303,-0.000
 00586,-0.01747737,-0.02081238,-0.00000202,-0.00024618,0.00015791,0.000
 00013,0.00044923,-0.00007280,-0.00000010,-0.07853278,-0.38376900,-0.00
 003555,0.10465472,0.05167194,-0.00000759,-0.00008894,0.00046270,0.0000
 0011,-0.00009734,-0.00040774,-0.00000013,0.02027748,-0.27131572,-0.000
 03351,0.05999035,0.76257652,-0.00000532,0.00000296,0.00011144,0.000007
 33,0.00000274,0.00615114,-0.00001157,0.00000471,0.00809719,-0.00000691
 ,-0.00001084,-0.00818898,0.00000537,0.00000280,-0.00052564,0.00000049,
 -0.00000602,0.00010386,-0.00000384,-0.00000658,0.00598482,-0.00000004,
 0.00000014,-0.00072055,0.00000002,0.00000002,-0.00006522,0.00000952,-0
 .00002402,-0.07479552,0.00002089,0.00000219,0.00995935,-0.00000002,0.0
 0000009,-0.00010218,0.,-0.00000010,0.00015942,0.00001977,-0.00004621,-
 0.07724637,-0.00008145,0.00008409,0.16345184,0.00030124,-0.00019868,-0
 .00000008,0.00057653,-0.00090470,-0.00000023,-0.00201138,-0.00328433,0
 .00000047,0.01399256,-0.01617822,-0.00000367,0.00100824,-0.00073318,-0
 .00000066,0.00026585,0.00044919,0.00000003,0.00010802,0.00010933,-0.00
 000015,-0.00000609,0.00002979,0.00000001,-0.00016228,-0.00026280,0.,-0
 .00065733,-0.00067896,-0.00000006,-0.15000959,0.13133971,0.00003233,-0
 .00022974,0.00007598,0.00000008,0.00001734,0.00003983,0.00000002,-0.01
 120942,0.03459222,0.00000739,-0.00641887,-0.00196265,0.00000176,0.1540
 7785,-0.00027634,0.00012892,0.00000007,0.00163359,-0.00058919,-0.00000
 032,-0.00478421,-0.00341042,-0.00000064,0.01865139,-0.02079907,-0.0000
 0615,0.00218616,0.00122145,0.00000039,-0.00026341,-0.00007289,0.000000
 03,0.00013620,-0.00002975,0.00000016,-0.00009720,0.00003805,0.00000001
 ,-0.00026278,-0.00044117,-0.00000005,-0.00088554,0.00020867,0.00000021
 ,0.13174968,-0.29845378,-0.00005376,-0.00135387,0.00048736,0.00000020,
 -0.00006489,-0.00003291,-0.00000002,-0.00266406,0.00558654,0.00000032,
 -0.00059067,0.00155589,-0.00000115,-0.14352158,0.31342136,-0.00000010,
 0.00000006,-0.00010216,0.00000019,0.00000003,-0.00004494,0.00000023,-0
 .00000094,0.00541107,0.00000152,-0.00000176,0.00424854,-0.00000021,0.0
 0000080,-0.00331500,-0.00000008,-0.00000009,-0.00006529,-0.00000016,0.
 00000017,-0.00125568,0.,0.,0.00004957,0.,-0.00000006,0.00017422,-0.000
 00015,0.00000015,-0.00035304,0.00003229,-0.00005345,-0.04552689,-0.000
 00013,0.00000002,0.00028453,0.,-0.00000004,0.00017654,0.00000196,-0.00
 000453,0.00598500,0.00000209,-0.00000099,0.01003334,-0.00003661,0.0000
 5965,0.03070129,-0.00031470,0.00026310,0.00000010,0.00047704,0.0001981
 6,-0.00000015,-0.00092741,0.00028490,0.00000012,-0.00659575,0.00221344
 ,0.00000260,0.00032518,-0.00169940,-0.00000027,-0.00059248,-0.00024615
 ,-0.00000005,0.00052022,0.00092605,0.00000009,-0.00000488,-0.00002656,
 0.,-0.00000610,-0.00009721,0.,-0.00173273,0.00384675,0.00000157,-0.011
 08253,-0.03475393,-0.00000295,-0.00003157,0.00006729,0.00000004,-0.000
 09931,-0.00016361,-0.00000001,-0.14988821,-0.13152319,-0.00000571,0.01
 526568,0.01740422,0.00000109,0.00115088,0.00055546,-0.00000094,0.15261
 897,0.00009897,-0.00005794,-0.00000004,-0.00020550,-0.00001685,0.00000
 016,0.00095431,0.00047443,0.,0.00098581,0.00157182,-0.00000150,-0.0000
 2226,-0.00006769,-0.00000004,-0.00008408,0.00015793,0.00000014,-0.0008
 8525,-0.00123040,-0.00000009,-0.00002656,-0.00002262,0.,0.00002980,0.0
 0003805,0.,0.00477474,-0.00381194,-0.00000206,0.00238180,0.00554545,-0
 .00000034,-0.00003744,0.00001600,-0.00000002,-0.00001974,0.00000357,0.
 ,-0.13242139,-0.30223565,-0.00002059,-0.01926710,-0.01928499,-0.000000
 90,-0.00057431,0.00109737,0.00000121,0.14368508,0.31673671,0.00000007,
 -0.00000003,0.00015942,-0.00000019,0.00000010,-0.00090088,0.00000021,0
 .00000012,-0.00035518,0.00000229,-0.00000162,0.01067960,0.,0.00000017,
 0.00020309,-0.00000006,0.00000015,-0.00072071,-0.00000021,-0.00000035,
 0.00009986,0.,0.,0.00003292,0.00000001,0.00000002,0.00004958,0.0000018
 8,-0.00000192,0.00553013,0.00000251,0.00000445,0.00574873,0.00000002,-
 0.00000004,0.00017663,0.00000001,0.00000002,-0.00000251,-0.00000574,-0
 .00002019,-0.04635981,-0.00000450,-0.00000620,0.00395150,-0.00000103,0
 .00000103,-0.00650093,0.00000518,0.00002351,0.03134547,-0.00016268,-0.
 00032524,-0.00000012,-0.00070834,0.00055766,0.00000020,0.00098131,-0.0
 0326578,0.00000081,0.00066758,0.00005934,-0.00000013,0.00009828,0.0000
 0703,-0.00000013,0.00003509,-0.00009730,0.,0.00110208,-0.00054698,-0.0
 0000108,-0.00009930,-0.00001974,0.,0.00001734,-0.00006489,0.00000001,-
 0.01225095,0.00303760,0.00000281,0.00036522,0.00359754,0.00000122,-0.0
 0000129,0.00002710,0.00000001,-0.00004104,-0.00000627,0.,-0.01180659,-
 0.00407638,0.00000145,-0.37839709,-0.00420283,0.00004291,-0.00079379,-
 0.00014793,0.00000010,0.00091770,0.00063311,-0.00000044,0.40007648,-0.
 00048732,-0.00027186,0.00000014,-0.00111947,0.00096583,0.00000025,-0.0
 0203820,-0.00600523,-0.00000224,-0.00061009,-0.00112056,-0.00000004,0.
 00041069,0.00036191,0.00000015,0.00006683,-0.00040773,-0.00000009,0.00
 058293,0.00114610,0.00000110,-0.00016361,0.00000357,0.00000002,0.00003
 984,-0.00003291,-0.00000004,-0.03409788,0.00671448,0.00000460,0.002669
 52,-0.00590988,-0.00000212,-0.00009991,0.00003324,0.,-0.00000627,0.000
 01354,0.,0.03259516,0.00778714,-0.00000368,-0.00330514,-0.07372967,-0.
 00000392,0.00166337,0.00008358,-0.00000022,-0.00093440,0.00108674,0.00
 000078,0.00483396,0.06928170,-0.00000015,0.00000011,-0.00072072,-0.000
 00007,0.00000005,0.00020310,0.00000103,-0.00000204,0.01067964,-0.00000
 026,-0.00000012,-0.00035518,-0.00000006,0.00000019,-0.00090090,0.00000
 002,-0.00000008,0.00015942,-0.00000090,0.00000117,-0.00650088,-0.00000
 002,0.,-0.00000251,0.00000003,-0.00000002,0.00017662,-0.00000279,-0.00
 000028,0.00574861,0.00000106,-0.00000231,0.00553018,-0.00000001,0.,0.0
 0004958,0.,0.,0.00003293,0.00000732,0.00000109,0.00395159,0.00004273,-
 0.00000365,-0.04635944,0.00000039,0.00000003,0.00009984,-0.00000069,0.
 00000056,-0.00313691,-0.00004765,0.00000531,0.03134505\\-0.00006614,0.
 00009220,-0.00000067,0.00007964,0.00012595,0.00000250,0.00008261,-0.00
 016349,-0.00000178,-0.00010326,0.00015201,0.00000006,0.00014884,0.0000
 0706,0.00000113,0.00004735,-0.00010239,-0.00000091,0.00003902,-0.00004
 083,0.00000050,0.00000627,-0.00004731,-0.00000011,0.00001436,-0.000054
 78,-0.00000035,-0.00012989,0.00000396,-0.00000041,-0.00005955,-0.00011
 515,0.00000014,-0.00004078,0.00003945,-0.00000022,-0.00003790,0.000028
 37,0.00000024,0.00004764,-0.00008133,0.00000203,-0.00004575,0.00008212
 ,-0.00000144,-0.00001491,0.00005386,-0.00000055,-0.00000516,0.00004708
 ,-0.00000032,0.00003761,-0.00002679,0.00000015\\\@


 THE ONLY TROUBLE WITH A SURE THING IS THE UNCERTAINTY.
     -- FROM A TEABAG (BELONGING TO W.H.?)
 Job cpu time:  0 days  0 hours  6 minutes  6.3 seconds.
 File lengths (MBytes):  RWF=     81 Int=      0 D2E=      0 Chk=      6 Scr=      1
 Normal termination of Gaussian 03 at Sun Aug 31 01:11:04 2014.
