 Entering Gaussian System, Link 0=/mit/gaussian_v03-D01/distrib/i386_rhel4/g03/g03.real
 Input=/afs/athena.mit.edu/user/d/t/dtw/Desktop/LearnToGaussianFiles/Naph1.com
 Output=/afs/athena.mit.edu/user/d/t/dtw/Desktop/LearnToGaussianFiles/Naph1.log
 Initial command:
 /mit/gaussian_v03-D01/distrib/amd64_ubuntu1204/g03/l1.exe /var/tmp/Gau-38779.inp -scrdir=/var/tmp/
 Entering Link 1 = /mit/gaussian_v03-D01/distrib/amd64_ubuntu1204/g03/l1.exe PID=     38781.
  
 Copyright (c) 1988,1990,1992,1993,1995,1998,2003,2004, Gaussian, Inc.
                  All Rights Reserved.
  
 This is the Gaussian(R) 03 program.  It is based on the
 the Gaussian(R) 98 system (copyright 1998, Gaussian, Inc.),
 the Gaussian(R) 94 system (copyright 1995, Gaussian, Inc.),
 the Gaussian 92(TM) system (copyright 1992, Gaussian, Inc.),
 the Gaussian 90(TM) system (copyright 1990, Gaussian, Inc.),
 the Gaussian 88(TM) system (copyright 1988, Gaussian, Inc.),
 the Gaussian 86(TM) system (copyright 1986, Carnegie Mellon
 University), and the Gaussian 82(TM) system (copyright 1983,
 Carnegie Mellon University). Gaussian is a federally registered
 trademark of Gaussian, Inc.
  
 This software contains proprietary and confidential information,
 including trade secrets, belonging to Gaussian, Inc.
  
 This software is provided under written license and may be
 used, copied, transmitted, or stored only in accord with that
 written license.
  
 The following legend is applicable only to US Government
 contracts under FAR:
  
                    RESTRICTED RIGHTS LEGEND
  
 Use, reproduction and disclosure by the US Government is
 subject to restrictions as set forth in subparagraphs (a)
 and (c) of the Commercial Computer Software - Restricted
 Rights clause in FAR 52.227-19.
  
 Gaussian, Inc.
 340 Quinnipiac St., Bldg. 40, Wallingford CT 06492
  
  
 ---------------------------------------------------------------
 Warning -- This program may not be used in any manner that
 competes with the business of Gaussian, Inc. or will provide
 assistance to any competitor of Gaussian, Inc.  The licensee
 of this program is prohibited from giving any competitor of
 Gaussian, Inc. access to this program.  By using this program,
 the user acknowledges that Gaussian, Inc. is engaged in the
 business of creating and licensing software in the field of
 computational chemistry and represents and warrants to the
 licensee that it is not a competitor of Gaussian, Inc. and that
 it will not use this program in any manner prohibited above.
 ---------------------------------------------------------------
  

 Cite this work as:
 Gaussian 03, Revision D.01,
 M. J. Frisch, G. W. Trucks, H. B. Schlegel, G. E. Scuseria, 
 M. A. Robb, J. R. Cheeseman, J. A. Montgomery, Jr., T. Vreven, 
 K. N. Kudin, J. C. Burant, J. M. Millam, S. S. Iyengar, J. Tomasi, 
 V. Barone, B. Mennucci, M. Cossi, G. Scalmani, N. Rega, 
 G. A. Petersson, H. Nakatsuji, M. Hada, M. Ehara, K. Toyota, 
 R. Fukuda, J. Hasegawa, M. Ishida, T. Nakajima, Y. Honda, O. Kitao, 
 H. Nakai, M. Klene, X. Li, J. E. Knox, H. P. Hratchian, J. B. Cross, 
 V. Bakken, C. Adamo, J. Jaramillo, R. Gomperts, R. E. Stratmann, 
 O. Yazyev, A. J. Austin, R. Cammi, C. Pomelli, J. W. Ochterski, 
 P. Y. Ayala, K. Morokuma, G. A. Voth, P. Salvador, J. J. Dannenberg, 
 V. G. Zakrzewski, S. Dapprich, A. D. Daniels, M. C. Strain, 
 O. Farkas, D. K. Malick, A. D. Rabuck, K. Raghavachari, 
 J. B. Foresman, J. V. Ortiz, Q. Cui, A. G. Baboul, S. Clifford, 
 J. Cioslowski, B. B. Stefanov, G. Liu, A. Liashenko, P. Piskorz, 
 I. Komaromi, R. L. Martin, D. J. Fox, T. Keith, M. A. Al-Laham, 
 C. Y. Peng, A. Nanayakkara, M. Challacombe, P. M. W. Gill, 
 B. Johnson, W. Chen, M. W. Wong, C. Gonzalez, and J. A. Pople, 
 Gaussian, Inc., Wallingford CT, 2004.
 
 ******************************************
 Gaussian 03:  IA32L-G03RevD.01 13-Oct-2005
                30-Aug-2014 
 ******************************************
 %chk=Naph1.chk
 ------------------------------------
 # freq=noraman am1 geom=connectivity
 ------------------------------------
 1/10=4,30=1,38=1,57=2/1,3;
 2/17=6,18=5,40=1/2;
 3/5=2,11=9,12=1,16=1,25=1,30=1/1;
 4/5=3,11=1,20=5,22=2,24=3,35=1/1,2;
 6/7=2,8=2,9=2,10=2/1;
 7/8=1,25=1/16;
 1/10=4,30=1/3;
 99//99;
 -------------------
 Title Card Required
 -------------------
 Symbolic Z-matrix:
 Charge =  0 Multiplicity = 1
 C                    -6.3338   -0.65095   0.00026 
 C                    -4.961    -0.65095   0.00026 
 C                    -4.23906   0.57417   0.00026 
 C                    -4.95693   1.79804   0.00063 
 C                    -6.37835   1.76867   0.00079 
 C                    -7.04986   0.57069   0.0005 
 H                    -2.26999  -0.35079   0.00002 
 H                    -6.89453  -1.59729   0.00018 
 H                    -4.39621  -1.59527   0.00004 
 C                    -2.81734   0.60372   0. 
 C                    -4.23418   3.02276   0.00075 
 H                    -6.92559   2.72312   0.00087 
 H                    -8.14949   0.54432   0.0006 
 C                    -2.86132   3.02283   0.00048 
 C                    -2.14531   1.80094   0.00002 
 H                    -4.79864   3.96731   0.00101 
 H                    -2.30063   3.96916   0.0003 
 H                    -1.04568   1.82741  -0.00017 
 

 GradGradGradGradGradGradGradGradGradGradGradGradGradGradGradGradGradGrad
 Berny optimization.
 Initialization pass.
 Trust Radius=3.00D-01 FncErr=1.00D-07 GrdErr=1.00D-07
 Number of steps in this run=   2 maximum allowed number of steps=   2.
 GradGradGradGradGradGradGradGradGradGradGradGradGradGradGradGradGradGrad

                          Input orientation:                          
 ---------------------------------------------------------------------
 Center     Atomic     Atomic              Coordinates (Angstroms)
 Number     Number      Type              X           Y           Z
 ---------------------------------------------------------------------
    1          6             0       -6.333803   -0.650949    0.000263
    2          6             0       -4.961002   -0.650949    0.000263
    3          6             0       -4.239064    0.574172    0.000263
    4          6             0       -4.956934    1.798038    0.000633
    5          6             0       -6.378350    1.768665    0.000787
    6          6             0       -7.049855    0.570690    0.000497
    7          1             0       -2.269991   -0.350793    0.000020
    8          1             0       -6.894534   -1.597295    0.000183
    9          1             0       -4.396213   -1.595271    0.000035
   10          6             0       -2.817337    0.603715    0.000000
   11          6             0       -4.234184    3.022764    0.000748
   12          1             0       -6.925591    2.723121    0.000869
   13          1             0       -8.149492    0.544323    0.000599
   14          6             0       -2.861323    3.022832    0.000475
   15          6             0       -2.145311    1.800940    0.000016
   16          1             0       -4.798640    3.967305    0.001008
   17          1             0       -2.300631    3.969163    0.000297
   18          1             0       -1.045683    1.827405   -0.000166
 ---------------------------------------------------------------------
                    Distance matrix (angstroms):
                    1          2          3          4          5
     1  C    0.000000
     2  C    1.372801   0.000000
     3  C    2.426696   1.422011   0.000000
     4  C    2.809503   2.448990   1.418868   0.000000
     5  C    2.420024   2.804177   2.450175   1.421719   0.000000
     6  C    1.416027   2.419857   2.810793   2.426253   1.373340
     7  H    4.074882   2.707699   2.175502   3.440514   4.622847
     8  H    1.099995   2.152700   3.430275   3.909294   3.405310
     9  H    2.155458   1.100332   2.175127   3.439325   3.904476
    10  C    3.733593   2.483844   1.422034   2.450364   3.746722
    11  C    4.231379   3.744921   2.448597   1.422083   2.483991
    12  H    3.425575   3.904351   3.440263   2.175176   1.100209
    13  H    2.173799   3.405164   3.910542   3.429902   2.153127
    14  C    5.055174   4.231468   2.809645   2.427284   3.733954
    15  C    4.853373   3.733614   2.426677   2.811625   4.233162
    16  H    4.866723   4.621107   3.438965   2.175035   2.707305
    17  H    6.132855   5.331323   3.909410   3.430704   4.633571
    18  H    5.840073   4.633785   3.430492   3.911361   5.332991
                    6          7          8          9         10
     6  C    0.000000
     7  H    4.867877   0.000000
     8  H    2.173542   4.789589   0.000000
     9  H    3.425376   2.463645   2.498322   0.000000
    10  C    4.232647   1.100306   4.633355   2.707100   0.000000
    11  C    3.733721   3.903709   5.331267   4.620877   2.803436
    12  H    2.156015   5.578849   4.320528   5.004624   4.622730
    13  H    1.099953   5.947249   2.482226   4.320297   5.332486
    14  C    4.853535   3.425058   6.132892   4.866494   2.419517
    15  C    5.056488   2.155342   5.839788   4.074409   1.372941
    16  H    4.074919   5.004002   5.946221   5.577114   3.903755
    17  H    5.839927   4.320065   7.217299   5.945956   3.404883
    18  H    6.134282   2.498695   6.777730   4.789652   2.153178
                   11         12         13         14         15
    11  C    0.000000
    12  H    2.708036   0.000000
    13  H    4.633822   2.499019   0.000000
    14  C    1.372861   4.075304   5.840183   0.000000
    15  C    2.419968   4.868418   6.134271   1.416225   0.000000
    16  H    1.100349   2.464125   4.790096   2.155279   3.425389
    17  H    2.152742   4.789872   6.777810   1.099963   2.173779
    18  H    3.405205   5.947741   7.218754   2.173843   1.099946
                   16         17         18
    16  H    0.000000
    17  H    2.498010   0.000000
    18  H    4.320169   2.482342   0.000000
 Stoichiometry    C10H8
 Framework group  C1[X(C10H8)]
 Deg. of freedom    48
 Full point group                 C1
 Largest Abelian subgroup         C1      NOp   1
 Largest concise Abelian subgroup C1      NOp   1
                         Standard orientation:                         
 ---------------------------------------------------------------------
 Center     Atomic     Atomic              Coordinates (Angstroms)
 Number     Number      Type              X           Y           Z
 ---------------------------------------------------------------------
    1          6             0        2.426104   -0.708815    0.000127
    2          6             0        1.241200   -1.402057    0.000127
    3          6             0       -0.000592   -0.709186    0.000127
    4          6             0        0.000990    0.709681   -0.000243
    5          6             0        1.242689    1.402120   -0.000397
    6          6             0        2.427242    0.707212   -0.000107
    7          1             0       -1.233064   -2.501900    0.000370
    8          1             0        3.387976   -1.242474    0.000207
    9          1             0        1.230581   -2.502338    0.000355
   10          6             0       -1.242645   -1.401635    0.000390
   11          6             0       -1.241303    1.401800   -0.000358
   12          1             0        1.233044    2.502286   -0.000479
   13          1             0        3.389685    1.239752   -0.000209
   14          6             0       -2.426293    0.708587   -0.000085
   15          6             0       -2.427269   -0.707638    0.000374
   16          1             0       -1.231082    2.502102   -0.000618
   17          1             0       -3.388124    1.242252    0.000093
   18          1             0       -3.389754   -1.240089    0.000556
 ---------------------------------------------------------------------
 Rotational constants (GHZ):      3.1209900      1.2352643      0.8849914
 Standard basis: VSTO-3G (5D, 7F)
 There are    48 symmetry adapted basis functions of A   symmetry.
 Integral buffers will be    262144 words long.
 Raffenetti 1 integral format.
 Two-electron integral symmetry is turned on.
    48 basis functions,   144 primitive gaussians,    48 cartesian basis functions
    24 alpha electrons       24 beta electrons
       nuclear repulsion energy       225.5059358652 Hartrees.
 NAtoms=   18 NActive=   18 NUniq=   18 SFac= 7.50D-01 NAtFMM=   80 NAOKFM=F Big=F
 Simple Huckel Guess.
 Initial guess orbital symmetries:
       Occupied  (A) (A) (A) (A) (A) (A) (A) (A) (A) (A) (A) (A)
                 (A) (A) (A) (A) (A) (A) (A) (A) (A) (A) (A) (A)
       Virtual   (A) (A) (A) (A) (A) (A) (A) (A) (A) (A) (A) (A)
                 (A) (A) (A) (A) (A) (A) (A) (A) (A) (A) (A) (A)
 The electronic state of the initial guess is 1-A.
 RHF-AM1 calculation of energy, first and second derivatives.
 MO and density RWFs will be updated without deorthogonalization.
 Numerical evaluation of force-constants.
 Step-Size= 0.018897 bohr.
 Closed-shell calculation:      24 occupied levels.
 NNHCO=    0.
 References:
  H: (AM1): M.J.S. DEWAR ET AL, J. AM. CHEM. SOC. 107 3902-3909 (1985)
  C: (AM1): M.J.S. DEWAR ET AL, J. AM. CHEM. SOC. 107 3902-3909 (1985)
 Ext34=T Pulay=F Camp-King=F BShift= 0.00D+00
 It=  1 PL= 0.662D+00 DiagD=T ESCF=      9.622665 Diff= 0.529D+01 RMSDP= 0.204D+00.
 It=  2 PL= 0.492D-01 DiagD=T ESCF=      2.392296 Diff=-0.723D+01 RMSDP= 0.546D-02.
 It=  3 PL= 0.140D-01 DiagD=F ESCF=      1.816959 Diff=-0.575D+00 RMSDP= 0.253D-02.
 It=  4 PL= 0.924D-03 DiagD=F ESCF=      1.729979 Diff=-0.870D-01 RMSDP= 0.341D-03.
 It=  5 PL= 0.360D-03 DiagD=F ESCF=      1.753433 Diff= 0.235D-01 RMSDP= 0.201D-03.
 3-point extrapolation.
 It=  6 PL= 0.174D-03 DiagD=F ESCF=      1.753008 Diff=-0.425D-03 RMSDP= 0.229D-03.
 It=  7 PL= 0.131D-02 DiagD=F ESCF=      1.744898 Diff=-0.811D-02 RMSDP= 0.718D-03.
 It=  8 PL= 0.639D-03 DiagD=F ESCF=      1.755952 Diff= 0.111D-01 RMSDP= 0.437D-03.
 It=  9 PL= 0.347D-03 DiagD=F ESCF=      1.753976 Diff=-0.198D-02 RMSDP= 0.503D-03.
 It= 10 PL= 0.375D-04 DiagD=F ESCF=      1.752123 Diff=-0.185D-02 RMSDP= 0.803D-04.
 It= 11 PL= 0.190D-04 DiagD=F ESCF=      1.752799 Diff= 0.677D-03 RMSDP= 0.505D-04.
 3-point extrapolation.
 It= 12 PL= 0.130D-04 DiagD=F ESCF=      1.752774 Diff=-0.259D-04 RMSDP= 0.770D-04.
 It= 13 PL= 0.568D-04 DiagD=F ESCF=      1.752719 Diff=-0.550D-04 RMSDP= 0.869D-04.
 It= 14 PL= 0.232D-04 DiagD=F ESCF=      1.752806 Diff= 0.871D-04 RMSDP= 0.541D-04.
 It= 15 PL= 0.135D-04 DiagD=F ESCF=      1.752776 Diff=-0.296D-04 RMSDP= 0.775D-04.
 3-point extrapolation.
 It= 16 PL= 0.234D-05 DiagD=F ESCF=      1.752736 Diff=-0.397D-04 RMSDP= 0.478D-05.
 It= 17 PL= 0.273D-05 DiagD=F ESCF=      1.752759 Diff= 0.221D-04 RMSDP= 0.294D-05.
 It= 18 PL= 0.104D-05 DiagD=F ESCF=      1.752757 Diff=-0.146D-05 RMSDP= 0.326D-05.
 It= 19 PL= 0.276D-06 DiagD=F ESCF=      1.752757 Diff=-0.785D-07 RMSDP= 0.619D-06.
 4-point extrapolation.
 It= 20 PL= 0.204D-06 DiagD=F ESCF=      1.752757 Diff= 0.247D-07 RMSDP= 0.390D-06.
 It= 21 PL= 0.147D-06 DiagD=F ESCF=      1.752757 Diff= 0.991D-09 RMSDP= 0.146D-05.
 It= 22 PL= 0.179D-06 DiagD=F ESCF=      1.752757 Diff=-0.141D-07 RMSDP= 0.357D-06.
 It= 23 PL= 0.952D-07 DiagD=F ESCF=      1.752757 Diff= 0.114D-07 RMSDP= 0.222D-06.
 3-point extrapolation.
 It= 24 PL= 0.598D-07 DiagD=F ESCF=      1.752757 Diff=-0.498D-09 RMSDP= 0.314D-06.
 It= 25 PL= 0.263D-06 DiagD=F ESCF=      1.752757 Diff=-0.156D-08 RMSDP= 0.422D-06.
 It= 26 PL= 0.111D-06 DiagD=F ESCF=      1.752757 Diff= 0.239D-08 RMSDP= 0.263D-06.
 It= 27 PL= 0.692D-07 DiagD=F ESCF=      1.752757 Diff=-0.698D-09 RMSDP= 0.397D-06.
 It= 28 PL= 0.101D-07 DiagD=F ESCF=      1.752757 Diff=-0.102D-08 RMSDP= 0.158D-07.
 SE2nd ... symmetry will be used.
 SE2nd: IAtom=  1 IXYZ=1 IS=1.
 SE2nd: IAtom=  1 IXYZ=1 IS=2.
 SE2nd: IAtom=  1 IXYZ=2 IS=1.
 SE2nd: IAtom=  1 IXYZ=2 IS=2.
 SE2nd: IAtom=  1 IXYZ=3 IS=1.
 SE2nd: IAtom=  1 IXYZ=3 IS=2.
 SE2nd: IAtom=  2 IXYZ=1 IS=1.
 SE2nd: IAtom=  2 IXYZ=1 IS=2.
 SE2nd: IAtom=  2 IXYZ=2 IS=1.
 SE2nd: IAtom=  2 IXYZ=2 IS=2.
 SE2nd: IAtom=  2 IXYZ=3 IS=1.
 SE2nd: IAtom=  2 IXYZ=3 IS=2.
 SE2nd: IAtom=  3 IXYZ=1 IS=1.
 SE2nd: IAtom=  3 IXYZ=1 IS=2.
 SE2nd: IAtom=  3 IXYZ=2 IS=1.
 SE2nd: IAtom=  3 IXYZ=2 IS=2.
 SE2nd: IAtom=  3 IXYZ=3 IS=1.
 SE2nd: IAtom=  3 IXYZ=3 IS=2.
 SE2nd: IAtom=  4 IXYZ=1 IS=1.
 SE2nd: IAtom=  4 IXYZ=1 IS=2.
 SE2nd: IAtom=  4 IXYZ=2 IS=1.
 SE2nd: IAtom=  4 IXYZ=2 IS=2.
 SE2nd: IAtom=  4 IXYZ=3 IS=1.
 SE2nd: IAtom=  4 IXYZ=3 IS=2.
 SE2nd: IAtom=  5 IXYZ=1 IS=1.
 SE2nd: IAtom=  5 IXYZ=1 IS=2.
 SE2nd: IAtom=  5 IXYZ=2 IS=1.
 SE2nd: IAtom=  5 IXYZ=2 IS=2.
 SE2nd: IAtom=  5 IXYZ=3 IS=1.
 SE2nd: IAtom=  5 IXYZ=3 IS=2.
 SE2nd: IAtom=  6 IXYZ=1 IS=1.
 SE2nd: IAtom=  6 IXYZ=1 IS=2.
 SE2nd: IAtom=  6 IXYZ=2 IS=1.
 SE2nd: IAtom=  6 IXYZ=2 IS=2.
 SE2nd: IAtom=  6 IXYZ=3 IS=1.
 SE2nd: IAtom=  6 IXYZ=3 IS=2.
 SE2nd: IAtom=  7 IXYZ=1 IS=1.
 SE2nd: IAtom=  7 IXYZ=1 IS=2.
 SE2nd: IAtom=  7 IXYZ=2 IS=1.
 SE2nd: IAtom=  7 IXYZ=2 IS=2.
 SE2nd: IAtom=  7 IXYZ=3 IS=1.
 SE2nd: IAtom=  7 IXYZ=3 IS=2.
 SE2nd: IAtom=  8 IXYZ=1 IS=1.
 SE2nd: IAtom=  8 IXYZ=1 IS=2.
 SE2nd: IAtom=  8 IXYZ=2 IS=1.
 SE2nd: IAtom=  8 IXYZ=2 IS=2.
 SE2nd: IAtom=  8 IXYZ=3 IS=1.
 SE2nd: IAtom=  8 IXYZ=3 IS=2.
 SE2nd: IAtom=  9 IXYZ=1 IS=1.
 SE2nd: IAtom=  9 IXYZ=1 IS=2.
 SE2nd: IAtom=  9 IXYZ=2 IS=1.
 SE2nd: IAtom=  9 IXYZ=2 IS=2.
 SE2nd: IAtom=  9 IXYZ=3 IS=1.
 SE2nd: IAtom=  9 IXYZ=3 IS=2.
 SE2nd: IAtom= 10 IXYZ=1 IS=1.
 SE2nd: IAtom= 10 IXYZ=1 IS=2.
 SE2nd: IAtom= 10 IXYZ=2 IS=1.
 SE2nd: IAtom= 10 IXYZ=2 IS=2.
 SE2nd: IAtom= 10 IXYZ=3 IS=1.
 SE2nd: IAtom= 10 IXYZ=3 IS=2.
 SE2nd: IAtom= 11 IXYZ=1 IS=1.
 SE2nd: IAtom= 11 IXYZ=1 IS=2.
 SE2nd: IAtom= 11 IXYZ=2 IS=1.
 SE2nd: IAtom= 11 IXYZ=2 IS=2.
 SE2nd: IAtom= 11 IXYZ=3 IS=1.
 SE2nd: IAtom= 11 IXYZ=3 IS=2.
 SE2nd: IAtom= 12 IXYZ=1 IS=1.
 SE2nd: IAtom= 12 IXYZ=1 IS=2.
 SE2nd: IAtom= 12 IXYZ=2 IS=1.
 SE2nd: IAtom= 12 IXYZ=2 IS=2.
 SE2nd: IAtom= 12 IXYZ=3 IS=1.
 SE2nd: IAtom= 12 IXYZ=3 IS=2.
 SE2nd: IAtom= 13 IXYZ=1 IS=1.
 SE2nd: IAtom= 13 IXYZ=1 IS=2.
 SE2nd: IAtom= 13 IXYZ=2 IS=1.
 SE2nd: IAtom= 13 IXYZ=2 IS=2.
 SE2nd: IAtom= 13 IXYZ=3 IS=1.
 SE2nd: IAtom= 13 IXYZ=3 IS=2.
 SE2nd: IAtom= 14 IXYZ=1 IS=1.
 SE2nd: IAtom= 14 IXYZ=1 IS=2.
 SE2nd: IAtom= 14 IXYZ=2 IS=1.
 SE2nd: IAtom= 14 IXYZ=2 IS=2.
 SE2nd: IAtom= 14 IXYZ=3 IS=1.
 SE2nd: IAtom= 14 IXYZ=3 IS=2.
 SE2nd: IAtom= 15 IXYZ=1 IS=1.
 SE2nd: IAtom= 15 IXYZ=1 IS=2.
 SE2nd: IAtom= 15 IXYZ=2 IS=1.
 SE2nd: IAtom= 15 IXYZ=2 IS=2.
 SE2nd: IAtom= 15 IXYZ=3 IS=1.
 SE2nd: IAtom= 15 IXYZ=3 IS=2.
 SE2nd: IAtom= 16 IXYZ=1 IS=1.
 SE2nd: IAtom= 16 IXYZ=1 IS=2.
 SE2nd: IAtom= 16 IXYZ=2 IS=1.
 SE2nd: IAtom= 16 IXYZ=2 IS=2.
 SE2nd: IAtom= 16 IXYZ=3 IS=1.
 SE2nd: IAtom= 16 IXYZ=3 IS=2.
 SE2nd: IAtom= 17 IXYZ=1 IS=1.
 SE2nd: IAtom= 17 IXYZ=1 IS=2.
 SE2nd: IAtom= 17 IXYZ=2 IS=1.
 SE2nd: IAtom= 17 IXYZ=2 IS=2.
 SE2nd: IAtom= 17 IXYZ=3 IS=1.
 SE2nd: IAtom= 17 IXYZ=3 IS=2.
 SE2nd: IAtom= 18 IXYZ=1 IS=1.
 SE2nd: IAtom= 18 IXYZ=1 IS=2.
 SE2nd: IAtom= 18 IXYZ=2 IS=1.
 SE2nd: IAtom= 18 IXYZ=2 IS=2.
 SE2nd: IAtom= 18 IXYZ=3 IS=1.
 SE2nd: IAtom= 18 IXYZ=3 IS=2.
 Maximum difference in off-diagonal FC elements:
 I= 41 J= 31 Difference=    1.1711298603D-04
 Max difference between analytic and numerical forces:
 I= 11 Difference=    8.2334854839D-05
 Energy=    0.064413894377 NIter=  29.
 Dipole moment=       0.000059      -0.000108       0.000060

 **********************************************************************

            Population analysis using the SCF density.

 **********************************************************************

 Orbital symmetries:
       Occupied  (A) (A) (A) (A) (A) (A) (A) (A) (A) (A) (A) (A)
                 (A) (A) (A) (A) (A) (A) (A) (A) (A) (A) (A) (A)
       Virtual   (A) (A) (A) (A) (A) (A) (A) (A) (A) (A) (A) (A)
                 (A) (A) (A) (A) (A) (A) (A) (A) (A) (A) (A) (A)
 The electronic state is 1-A.
 Alpha  occ. eigenvalues --   -1.48684  -1.34969  -1.21658  -1.13357  -1.09037
 Alpha  occ. eigenvalues --   -0.88673  -0.86433  -0.82778  -0.67371  -0.64643
 Alpha  occ. eigenvalues --   -0.62221  -0.56811  -0.55410  -0.52508  -0.52227
 Alpha  occ. eigenvalues --   -0.51720  -0.50019  -0.46314  -0.44226  -0.43580
 Alpha  occ. eigenvalues --   -0.42604  -0.39173  -0.34325  -0.32013
 Alpha virt. eigenvalues --   -0.00975   0.00662   0.04450   0.07808   0.12042
 Alpha virt. eigenvalues --    0.13541   0.14150   0.14534   0.14619   0.15101
 Alpha virt. eigenvalues --    0.15670   0.16248   0.16437   0.16492   0.17748
 Alpha virt. eigenvalues --    0.18733   0.18979   0.19557   0.19608   0.20497
 Alpha virt. eigenvalues --    0.20864   0.21052   0.21981   0.22538
          Condensed to atoms (all electrons):
              1          2          3          4          5          6
     1  C    4.127776   0.000000   0.000000   0.000000   0.000000   0.000000
     2  C    0.000000   4.117465   0.000000   0.000000   0.000000   0.000000
     3  C    0.000000   0.000000   4.036918   0.000000   0.000000   0.000000
     4  C    0.000000   0.000000   0.000000   4.036872   0.000000   0.000000
     5  C    0.000000   0.000000   0.000000   0.000000   4.117403   0.000000
     6  C    0.000000   0.000000   0.000000   0.000000   0.000000   4.127718
     7  H    0.000000   0.000000   0.000000   0.000000   0.000000   0.000000
     8  H    0.000000   0.000000   0.000000   0.000000   0.000000   0.000000
     9  H    0.000000   0.000000   0.000000   0.000000   0.000000   0.000000
    10  C    0.000000   0.000000   0.000000   0.000000   0.000000   0.000000
    11  C    0.000000   0.000000   0.000000   0.000000   0.000000   0.000000
    12  H    0.000000   0.000000   0.000000   0.000000   0.000000   0.000000
    13  H    0.000000   0.000000   0.000000   0.000000   0.000000   0.000000
    14  C    0.000000   0.000000   0.000000   0.000000   0.000000   0.000000
    15  C    0.000000   0.000000   0.000000   0.000000   0.000000   0.000000
    16  H    0.000000   0.000000   0.000000   0.000000   0.000000   0.000000
    17  H    0.000000   0.000000   0.000000   0.000000   0.000000   0.000000
    18  H    0.000000   0.000000   0.000000   0.000000   0.000000   0.000000
              7          8          9         10         11         12
     1  C    0.000000   0.000000   0.000000   0.000000   0.000000   0.000000
     2  C    0.000000   0.000000   0.000000   0.000000   0.000000   0.000000
     3  C    0.000000   0.000000   0.000000   0.000000   0.000000   0.000000
     4  C    0.000000   0.000000   0.000000   0.000000   0.000000   0.000000
     5  C    0.000000   0.000000   0.000000   0.000000   0.000000   0.000000
     6  C    0.000000   0.000000   0.000000   0.000000   0.000000   0.000000
     7  H    0.867947   0.000000   0.000000   0.000000   0.000000   0.000000
     8  H    0.000000   0.868393   0.000000   0.000000   0.000000   0.000000
     9  H    0.000000   0.000000   0.868012   0.000000   0.000000   0.000000
    10  C    0.000000   0.000000   0.000000   4.117438   0.000000   0.000000
    11  C    0.000000   0.000000   0.000000   0.000000   4.117544   0.000000
    12  H    0.000000   0.000000   0.000000   0.000000   0.000000   0.867855
    13  H    0.000000   0.000000   0.000000   0.000000   0.000000   0.000000
    14  C    0.000000   0.000000   0.000000   0.000000   0.000000   0.000000
    15  C    0.000000   0.000000   0.000000   0.000000   0.000000   0.000000
    16  H    0.000000   0.000000   0.000000   0.000000   0.000000   0.000000
    17  H    0.000000   0.000000   0.000000   0.000000   0.000000   0.000000
    18  H    0.000000   0.000000   0.000000   0.000000   0.000000   0.000000
             13         14         15         16         17         18
     1  C    0.000000   0.000000   0.000000   0.000000   0.000000   0.000000
     2  C    0.000000   0.000000   0.000000   0.000000   0.000000   0.000000
     3  C    0.000000   0.000000   0.000000   0.000000   0.000000   0.000000
     4  C    0.000000   0.000000   0.000000   0.000000   0.000000   0.000000
     5  C    0.000000   0.000000   0.000000   0.000000   0.000000   0.000000
     6  C    0.000000   0.000000   0.000000   0.000000   0.000000   0.000000
     7  H    0.000000   0.000000   0.000000   0.000000   0.000000   0.000000
     8  H    0.000000   0.000000   0.000000   0.000000   0.000000   0.000000
     9  H    0.000000   0.000000   0.000000   0.000000   0.000000   0.000000
    10  C    0.000000   0.000000   0.000000   0.000000   0.000000   0.000000
    11  C    0.000000   0.000000   0.000000   0.000000   0.000000   0.000000
    12  H    0.000000   0.000000   0.000000   0.000000   0.000000   0.000000
    13  H    0.868357   0.000000   0.000000   0.000000   0.000000   0.000000
    14  C    0.000000   4.127796   0.000000   0.000000   0.000000   0.000000
    15  C    0.000000   0.000000   4.127723   0.000000   0.000000   0.000000
    16  H    0.000000   0.000000   0.000000   0.868098   0.000000   0.000000
    17  H    0.000000   0.000000   0.000000   0.000000   0.868376   0.000000
    18  H    0.000000   0.000000   0.000000   0.000000   0.000000   0.868308
 Mulliken atomic charges:
              1
     1  C   -0.127776
     2  C   -0.117465
     3  C   -0.036918
     4  C   -0.036872
     5  C   -0.117403
     6  C   -0.127718
     7  H    0.132053
     8  H    0.131607
     9  H    0.131988
    10  C   -0.117438
    11  C   -0.117544
    12  H    0.132145
    13  H    0.131643
    14  C   -0.127796
    15  C   -0.127723
    16  H    0.131902
    17  H    0.131624
    18  H    0.131692
 Sum of Mulliken charges=   0.00000
 Atomic charges with hydrogens summed into heavy atoms:
              1
     1  C    0.003831
     2  C    0.014522
     3  C   -0.036918
     4  C   -0.036872
     5  C    0.014742
     6  C    0.003925
     7  H    0.000000
     8  H    0.000000
     9  H    0.000000
    10  C    0.014615
    11  C    0.014358
    12  H    0.000000
    13  H    0.000000
    14  C    0.003828
    15  C    0.003969
    16  H    0.000000
    17  H    0.000000
    18  H    0.000000
 Sum of Mulliken charges=   0.00000
 APT atomic charges:
              1
     1  C   -0.109481
     2  C   -0.117860
     3  C   -0.046123
     4  C   -0.045949
     5  C   -0.118136
     6  C   -0.109238
     7  H    0.120870
     8  H    0.129489
     9  H    0.120786
    10  C   -0.118035
    11  C   -0.117893
    12  H    0.121026
    13  H    0.129571
    14  C   -0.109443
    15  C   -0.109263
    16  H    0.120650
    17  H    0.129500
    18  H    0.129639
 Sum of APT charges=   0.00011
 APT Atomic charges with hydrogens summed into heavy atoms:
              1
     1  C    0.020008
     2  C    0.002926
     3  C   -0.046123
     4  C   -0.045949
     5  C    0.002890
     6  C    0.020333
     7  H    0.000000
     8  H    0.000000
     9  H    0.000000
    10  C    0.002834
    11  C    0.002757
    12  H    0.000000
    13  H    0.000000
    14  C    0.020057
    15  C    0.020377
    16  H    0.000000
    17  H    0.000000
    18  H    0.000000
 Sum of APT charges=   0.00011
 Full mass-weighted force constant matrix:
 Low frequencies ---   -6.1380   -1.9013   -0.0501   -0.0163   -0.0058    7.1016
 Low frequencies ---  163.2086  164.4961  348.1257
 Diagonal vibrational polarizability:
        0.6807938       0.7435510      10.3868525
 Harmonic frequencies (cm**-1), IR intensities (KM/Mole), Raman scattering
 activities (A**4/AMU), depolarization ratios for plane and unpolarized
 incident light, reduced masses (AMU), force constants (mDyne/A),
 and normal coordinates:
                     1                      2                      3
                     A                      A                      A
 Frequencies --   163.2085               164.4955               348.1256
 Red. masses --     3.1769                 3.8996                 2.5488
 Frc consts  --     0.0499                 0.0622                 0.1820
 IR Inten    --     0.0020                 1.8719                 0.0000
 Atom AN      X      Y      Z        X      Y      Z        X      Y      Z
   1   6     0.00   0.00   0.13     0.00   0.00  -0.19     0.00   0.00  -0.08
   2   6     0.00   0.00   0.18     0.00   0.00   0.09     0.00   0.00   0.17
   3   6     0.00   0.00   0.01     0.00   0.00   0.21     0.00   0.00   0.00
   4   6     0.00   0.00   0.01     0.00   0.00   0.21     0.00   0.00   0.00
   5   6     0.00   0.00  -0.17     0.00   0.00   0.10     0.00   0.00   0.17
   6   6     0.00   0.00  -0.14     0.00   0.00  -0.18     0.00   0.00  -0.08
   7   1     0.00   0.00  -0.33     0.00   0.00   0.18     0.00   0.00  -0.42
   8   1     0.00   0.00   0.28     0.00   0.00  -0.41     0.00   0.00  -0.20
   9   1     0.00   0.00   0.34     0.00   0.00   0.15     0.00   0.00   0.42
  10   6     0.00   0.00  -0.17     0.00   0.00   0.10     0.00   0.00  -0.17
  11   6     0.00   0.00   0.18     0.00   0.00   0.09     0.00   0.00  -0.17
  12   1     0.00   0.00  -0.33     0.00   0.00   0.17     0.00   0.00   0.42
  13   1     0.00   0.00  -0.31     0.00   0.00  -0.39     0.00   0.00  -0.19
  14   6     0.00   0.00   0.13     0.00   0.00  -0.19     0.00   0.00   0.08
  15   6     0.00   0.00  -0.14     0.00   0.00  -0.18     0.00   0.00   0.08
  16   1     0.00   0.00   0.34     0.00   0.00   0.15     0.00   0.00  -0.42
  17   1     0.00   0.00   0.28     0.00   0.00  -0.41     0.00   0.00   0.19
  18   1     0.00   0.00  -0.31     0.00   0.00  -0.39     0.00   0.00   0.19
                     4                      5                      6
                     A                      A                      A
 Frequencies --   400.6192               441.2372               477.1706
 Red. masses --     3.9522                 2.4356                 2.3415
 Frc consts  --     0.3737                 0.2794                 0.3141
 IR Inten    --     0.5943                 0.0001                24.0702
 Atom AN      X      Y      Z        X      Y      Z        X      Y      Z
   1   6    -0.04  -0.14   0.00     0.00   0.00   0.14     0.00   0.00   0.04
   2   6    -0.13   0.04   0.00     0.00   0.00  -0.06     0.00   0.00  -0.09
   3   6     0.00   0.23   0.00     0.00   0.00  -0.12     0.00   0.00   0.20
   4   6     0.00   0.23   0.00     0.00   0.00   0.12     0.00   0.00   0.20
   5   6     0.13   0.04   0.00     0.00   0.00   0.06     0.00   0.00  -0.09
   6   6     0.04  -0.14   0.00     0.00   0.00  -0.14     0.00   0.00   0.04
   7   1     0.33   0.04   0.00     0.00   0.00  -0.09     0.00   0.00  -0.47
   8   1    -0.10  -0.25   0.00     0.00   0.00   0.46     0.00   0.00  -0.03
   9   1    -0.33   0.04   0.00     0.00   0.00  -0.08     0.00   0.00  -0.47
  10   6     0.13   0.04   0.00     0.00   0.00  -0.06     0.00   0.00  -0.09
  11   6    -0.13   0.04   0.00     0.00   0.00   0.06     0.00   0.00  -0.09
  12   1     0.33   0.04   0.00     0.00   0.00   0.08     0.00   0.00  -0.47
  13   1     0.10  -0.25   0.00     0.00   0.00  -0.46     0.00   0.00  -0.03
  14   6    -0.04  -0.14   0.00     0.00   0.00  -0.14     0.00   0.00   0.04
  15   6     0.04  -0.14   0.00     0.00   0.00   0.14     0.00   0.00   0.04
  16   1    -0.33   0.04   0.00     0.00   0.00   0.08     0.00   0.00  -0.47
  17   1    -0.10  -0.25   0.00     0.00   0.00  -0.46     0.00   0.00  -0.03
  18   1     0.10  -0.25   0.00     0.00   0.00   0.46     0.00   0.00  -0.03
                     7                      8                      9
                     A                      A                      A
 Frequencies --   546.3174               547.0822               552.7380
 Red. masses --     2.1210                 7.2078                 6.8855
 Frc consts  --     0.3730                 1.2710                 1.2394
 IR Inten    --     0.0000                 0.0000                 0.0000
 Atom AN      X      Y      Z        X      Y      Z        X      Y      Z
   1   6     0.00   0.00   0.12    -0.20   0.15   0.00     0.28   0.00   0.00
   2   6     0.00   0.00  -0.11    -0.20   0.13   0.00     0.15   0.18   0.00
   3   6     0.00   0.00   0.00    -0.22   0.00   0.00     0.00   0.01   0.00
   4   6     0.00   0.00   0.00     0.22   0.00   0.00     0.00  -0.01   0.00
   5   6     0.00   0.00   0.11     0.19   0.13   0.00     0.15  -0.18   0.00
   6   6     0.00   0.00  -0.12     0.20   0.15   0.00     0.28   0.00   0.00
   7   1     0.00   0.00   0.27    -0.09  -0.13   0.00    -0.17   0.17   0.00
   8   1     0.00   0.00   0.39    -0.29  -0.03   0.00     0.21  -0.11   0.00
   9   1     0.00   0.00  -0.26    -0.09   0.13   0.00     0.17   0.17   0.00
  10   6     0.00   0.00   0.11    -0.19  -0.13   0.00    -0.15   0.18   0.00
  11   6     0.00   0.00  -0.11     0.20  -0.13   0.00    -0.15  -0.18   0.00
  12   1     0.00   0.00   0.27     0.09   0.13   0.00     0.17  -0.17   0.00
  13   1     0.00   0.00  -0.39     0.29  -0.03   0.00     0.22   0.11   0.00
  14   6     0.00   0.00   0.12     0.20  -0.15   0.00    -0.28   0.00   0.00
  15   6     0.00   0.00  -0.12    -0.20  -0.15   0.00    -0.28   0.00   0.00
  16   1     0.00   0.00  -0.26     0.09  -0.13   0.00    -0.17  -0.17   0.00
  17   1     0.00   0.00   0.39     0.29   0.03   0.00    -0.21   0.11   0.00
  18   1     0.00   0.00  -0.39    -0.29   0.03   0.00    -0.22  -0.11   0.00
                    10                     11                     12
                     A                      A                      A
 Frequencies --   663.3874               753.1307               779.7575
 Red. masses --     6.6861                 2.4051                 1.1502
 Frc consts  --     1.7336                 0.8038                 0.4120
 IR Inten    --     1.1384                 0.0000                 0.0000
 Atom AN      X      Y      Z        X      Y      Z        X      Y      Z
   1   6    -0.14  -0.02   0.00     0.00   0.00   0.05     0.00   0.00   0.04
   2   6     0.04  -0.30   0.00     0.00   0.00  -0.02     0.00   0.00   0.04
   3   6     0.18   0.00   0.00     0.00   0.00   0.24     0.00   0.00   0.00
   4   6     0.18   0.00   0.00     0.00   0.00  -0.24     0.00   0.00   0.00
   5   6     0.04   0.30   0.00     0.00   0.00   0.02     0.00   0.00   0.04
   6   6    -0.14   0.02   0.00     0.00   0.00  -0.05     0.00   0.00   0.04
   7   1     0.04   0.29   0.00     0.00   0.00  -0.46     0.00   0.00   0.30
   8   1    -0.01   0.19   0.00     0.00   0.00   0.06     0.00   0.00  -0.39
   9   1     0.04  -0.29   0.00     0.00   0.00  -0.46     0.00   0.00  -0.30
  10   6     0.04   0.30   0.00     0.00   0.00  -0.02     0.00   0.00  -0.04
  11   6     0.04  -0.30   0.00     0.00   0.00   0.02     0.00   0.00  -0.04
  12   1     0.04   0.29   0.00     0.00   0.00   0.46     0.00   0.00  -0.30
  13   1    -0.01  -0.19   0.00     0.00   0.00  -0.06     0.00   0.00  -0.39
  14   6    -0.14  -0.02   0.00     0.00   0.00  -0.05     0.00   0.00  -0.04
  15   6    -0.14   0.02   0.00     0.00   0.00   0.05     0.00   0.00  -0.04
  16   1     0.04  -0.29   0.00     0.00   0.00   0.46     0.00   0.00   0.30
  17   1    -0.01   0.19   0.00     0.00   0.00  -0.06     0.00   0.00   0.39
  18   1    -0.01  -0.19   0.00     0.00   0.00   0.06     0.00   0.00   0.39
                    13                     14                     15
                     A                      A                      A
 Frequencies --   837.4130               852.8549               894.1353
 Red. masses --     1.2810                 5.6872                 1.3017
 Frc consts  --     0.5293                 2.4372                 0.6132
 IR Inten    --   140.1108                 0.5270                 0.0001
 Atom AN      X      Y      Z        X      Y      Z        X      Y      Z
   1   6     0.00   0.00  -0.05     0.26  -0.13   0.00     0.00   0.00   0.04
   2   6     0.00   0.00  -0.04     0.11   0.08   0.00     0.00   0.00   0.07
   3   6     0.00   0.00   0.07     0.00   0.06   0.00     0.00   0.00   0.00
   4   6     0.00   0.00   0.07     0.00   0.06   0.00     0.00   0.00   0.00
   5   6     0.00   0.00  -0.04    -0.11   0.09   0.00     0.00   0.00  -0.07
   6   6     0.00   0.00  -0.05    -0.26  -0.13   0.00     0.00   0.00  -0.04
   7   1     0.00   0.00   0.19     0.03   0.08   0.00     0.00   0.00   0.44
   8   1     0.00   0.00   0.46     0.36   0.08   0.00     0.00   0.00  -0.23
   9   1     0.00   0.00   0.19    -0.03   0.08   0.00     0.00   0.00  -0.44
  10   6     0.00   0.00  -0.04    -0.11   0.09   0.00     0.00   0.00  -0.07
  11   6     0.00   0.00  -0.04     0.11   0.09   0.00     0.00   0.00   0.07
  12   1     0.00   0.00   0.19     0.03   0.08   0.00     0.00   0.00   0.44
  13   1     0.00   0.00   0.46    -0.36   0.08   0.00     0.00   0.00   0.23
  14   6     0.00   0.00  -0.05     0.26  -0.13   0.00     0.00   0.00   0.04
  15   6     0.00   0.00  -0.05    -0.26  -0.13   0.00     0.00   0.00  -0.04
  16   1     0.00   0.00   0.19    -0.03   0.08   0.00     0.00   0.00  -0.44
  17   1     0.00   0.00   0.46     0.36   0.08   0.00     0.00   0.00  -0.23
  18   1     0.00   0.00   0.46    -0.36   0.08   0.00     0.00   0.00   0.23
                    16                     17                     18
                     A                      A                      A
 Frequencies --   937.8818               955.6644               963.4671
 Red. masses --     1.6842                 3.3041                 1.4502
 Frc consts  --     0.8728                 1.7779                 0.7931
 IR Inten    --     0.0000                 0.0000                 0.0000
 Atom AN      X      Y      Z        X      Y      Z        X      Y      Z
   1   6     0.00   0.00  -0.06    -0.04   0.01   0.00     0.00   0.00   0.06
   2   6     0.00   0.00  -0.07    -0.11   0.18   0.00     0.00   0.00  -0.08
   3   6     0.00   0.00   0.11     0.00   0.10   0.00     0.00   0.00   0.00
   4   6     0.00   0.00  -0.11     0.00  -0.10   0.00     0.00   0.00   0.00
   5   6     0.00   0.00   0.08    -0.11  -0.18   0.00     0.00   0.00  -0.08
   6   6     0.00   0.00   0.06    -0.04  -0.01   0.00     0.00   0.00   0.06
   7   1     0.00   0.00   0.35     0.32   0.18   0.00     0.00   0.00  -0.37
   8   1     0.00   0.00   0.34    -0.17  -0.19   0.00     0.00   0.00  -0.32
   9   1     0.00   0.00   0.34    -0.32   0.18   0.00     0.00   0.00   0.37
  10   6     0.00   0.00  -0.08     0.11   0.18   0.00     0.00   0.00   0.08
  11   6     0.00   0.00   0.07     0.11  -0.18   0.00     0.00   0.00   0.08
  12   1     0.00   0.00  -0.35    -0.32  -0.18   0.00     0.00   0.00   0.37
  13   1     0.00   0.00  -0.34    -0.17   0.19   0.00     0.00   0.00  -0.32
  14   6     0.00   0.00   0.06     0.05  -0.01   0.00     0.00   0.00  -0.06
  15   6     0.00   0.00  -0.06     0.04   0.01   0.00     0.00   0.00  -0.06
  16   1     0.00   0.00  -0.34     0.32  -0.18   0.00     0.00   0.00  -0.37
  17   1     0.00   0.00  -0.34     0.17   0.19   0.00     0.00   0.00   0.32
  18   1     0.00   0.00   0.34     0.17  -0.19   0.00     0.00   0.00   0.32
                    19                     20                     21
                     A                      A                      A
 Frequencies --   967.9027               986.4771               999.9461
 Red. masses --     5.4510                 1.5877                 1.6761
 Frc consts  --     3.0088                 0.9103                 0.9874
 IR Inten    --     0.0000                10.9018                 0.0001
 Atom AN      X      Y      Z        X      Y      Z        X      Y      Z
   1   6     0.16  -0.12   0.00     0.00   0.00  -0.05     0.00   0.00  -0.11
   2   6    -0.02   0.24   0.00     0.00   0.00   0.09     0.00   0.00   0.06
   3   6    -0.09   0.00   0.00     0.00   0.00  -0.05     0.00   0.00   0.00
   4   6     0.09   0.00   0.00     0.00   0.00  -0.05     0.00   0.00   0.00
   5   6     0.02   0.24   0.00     0.00   0.00   0.09     0.00   0.00  -0.06
   6   6    -0.16  -0.12   0.00     0.00   0.00  -0.05     0.00   0.00   0.11
   7   1    -0.22  -0.23   0.00     0.00   0.00  -0.42     0.00   0.00   0.23
   8   1     0.10  -0.19   0.00     0.00   0.00   0.24     0.00   0.00   0.43
   9   1    -0.22   0.23   0.00     0.00   0.00  -0.42     0.00   0.00  -0.24
  10   6    -0.02  -0.24   0.00     0.00   0.00   0.09     0.00   0.00  -0.06
  11   6     0.02  -0.24   0.00     0.00   0.00   0.09     0.00   0.00   0.06
  12   1     0.22   0.23   0.00     0.00   0.00  -0.42     0.00   0.00   0.23
  13   1    -0.10  -0.19   0.00     0.00   0.00   0.24     0.00   0.00  -0.42
  14   6    -0.16   0.12   0.00     0.00   0.00  -0.05     0.00   0.00  -0.11
  15   6     0.16   0.12   0.00     0.00   0.00  -0.05     0.00   0.00   0.11
  16   1     0.22  -0.23   0.00     0.00   0.00  -0.42     0.00   0.00  -0.23
  17   1    -0.10   0.19   0.00     0.00   0.00   0.24     0.00   0.00   0.42
  18   1     0.10   0.19   0.00     0.00   0.00   0.24     0.00   0.00  -0.42
                    22                     23                     24
                     A                      A                      A
 Frequencies --  1006.2263              1167.1606              1173.4277
 Red. masses --     1.8034                 1.3036                 1.5253
 Frc consts  --     1.0758                 1.0463                 1.2374
 IR Inten    --     0.0000                 1.0492                 0.0000
 Atom AN      X      Y      Z        X      Y      Z        X      Y      Z
   1   6     0.00   0.00   0.10    -0.05   0.06   0.00     0.05  -0.07   0.00
   2   6     0.00   0.00  -0.08     0.01   0.03   0.00     0.01  -0.06   0.00
   3   6     0.00   0.00   0.05     0.00   0.00   0.00     0.00   0.04   0.00
   4   6     0.00   0.00  -0.05     0.00   0.00   0.00     0.00  -0.04   0.00
   5   6     0.00   0.00   0.08     0.01  -0.03   0.00     0.01   0.06   0.00
   6   6     0.00   0.00  -0.10    -0.05  -0.06   0.00     0.05   0.07   0.00
   7   1     0.00   0.00   0.29     0.44  -0.03   0.00     0.48  -0.06   0.00
   8   1     0.00   0.00  -0.39     0.04   0.21   0.00     0.05  -0.08   0.00
   9   1     0.00   0.00   0.29     0.44   0.03   0.00    -0.47  -0.05   0.00
  10   6     0.00   0.00  -0.08     0.01  -0.03   0.00    -0.01  -0.06   0.00
  11   6     0.00   0.00   0.08     0.01   0.03   0.00    -0.01   0.06   0.00
  12   1     0.00   0.00  -0.29     0.45  -0.03   0.00    -0.48   0.06   0.00
  13   1     0.00   0.00   0.38     0.04  -0.21   0.00     0.05   0.07   0.00
  14   6     0.00   0.00  -0.10    -0.05   0.06   0.00    -0.05   0.07   0.00
  15   6     0.00   0.00   0.10    -0.05  -0.06   0.00    -0.05  -0.07   0.00
  16   1     0.00   0.00  -0.29     0.44   0.03   0.00     0.48   0.06   0.00
  17   1     0.00   0.00   0.39     0.04   0.21   0.00    -0.05   0.08   0.00
  18   1     0.00   0.00  -0.39     0.04  -0.21   0.00    -0.05  -0.08   0.00
                    25                     26                     27
                     A                      A                      A
 Frequencies --  1189.2324              1206.1486              1208.7424
 Red. masses --     1.2566                 1.0471                 1.0648
 Frc consts  --     1.0471                 0.8975                 0.9166
 IR Inten    --     1.2627                 0.0000                 0.1899
 Atom AN      X      Y      Z        X      Y      Z        X      Y      Z
   1   6     0.01  -0.01   0.00     0.01   0.01   0.00     0.00  -0.01   0.00
   2   6     0.01   0.06   0.00    -0.02  -0.02   0.00     0.02   0.01   0.00
   3   6     0.00  -0.05   0.00    -0.02   0.00   0.00    -0.04   0.00   0.00
   4   6     0.00  -0.05   0.00     0.02   0.00   0.00    -0.04   0.00   0.00
   5   6    -0.01   0.06   0.00     0.02  -0.02   0.00     0.02  -0.01   0.00
   6   6    -0.01  -0.01   0.00    -0.01   0.01   0.00     0.00   0.01   0.00
   7   1    -0.25   0.06   0.00    -0.35   0.01   0.00    -0.21  -0.01   0.00
   8   1    -0.19  -0.37   0.00     0.17   0.30   0.00     0.22   0.40   0.00
   9   1     0.26   0.06   0.00    -0.34  -0.01   0.00    -0.21   0.01   0.00
  10   6    -0.01   0.06   0.00    -0.02   0.02   0.00     0.02  -0.01   0.00
  11   6     0.01   0.06   0.00     0.02   0.02   0.00     0.02   0.01   0.00
  12   1    -0.25   0.06   0.00     0.35  -0.01   0.00    -0.21  -0.01   0.00
  13   1     0.19  -0.38   0.00    -0.18   0.32   0.00     0.22  -0.39   0.00
  14   6     0.01  -0.01   0.00    -0.01  -0.01   0.00     0.00  -0.01   0.00
  15   6    -0.01  -0.01   0.00     0.01  -0.01   0.00     0.00   0.01   0.00
  16   1     0.25   0.06   0.00     0.34   0.01   0.00    -0.21   0.01   0.00
  17   1    -0.19  -0.37   0.00    -0.17  -0.30   0.00     0.22   0.40   0.00
  18   1     0.19  -0.38   0.00     0.18  -0.33   0.00     0.22  -0.39   0.00
                    28                     29                     30
                     A                      A                      A
 Frequencies --  1209.8477              1283.5290              1319.4613
 Red. masses --     1.0788                 1.2713                 1.2582
 Frc consts  --     0.9304                 1.2340                 1.2906
 IR Inten    --     0.0000                 0.0000                 0.6075
 Atom AN      X      Y      Z        X      Y      Z        X      Y      Z
   1   6     0.01  -0.02   0.00    -0.01   0.04   0.00     0.01   0.03   0.00
   2   6    -0.01  -0.03   0.00     0.04   0.00   0.00     0.03   0.02   0.00
   3   6     0.00  -0.03   0.00     0.07   0.00   0.00     0.00  -0.08   0.00
   4   6     0.00   0.03   0.00    -0.07   0.00   0.00     0.00  -0.08   0.00
   5   6    -0.01   0.03   0.00    -0.04   0.00   0.00    -0.02   0.02   0.00
   6   6     0.02   0.02   0.00     0.01   0.04   0.00    -0.01   0.03   0.00
   7   1    -0.12  -0.03   0.00    -0.37  -0.01   0.00     0.46   0.02   0.00
   8   1    -0.22  -0.44   0.00    -0.18  -0.27   0.00    -0.09  -0.15   0.00
   9   1     0.13  -0.03   0.00    -0.38   0.01   0.00    -0.46   0.02   0.00
  10   6     0.01  -0.03   0.00     0.04   0.00   0.00    -0.02   0.02   0.00
  11   6     0.01   0.03   0.00    -0.04   0.00   0.00     0.03   0.02   0.00
  12   1     0.11   0.03   0.00     0.38   0.01   0.00     0.46   0.02   0.00
  13   1    -0.21   0.42   0.00     0.18  -0.27   0.00     0.09  -0.15   0.00
  14   6    -0.01   0.02   0.00     0.01  -0.04   0.00     0.01   0.03   0.00
  15   6    -0.02  -0.02   0.00    -0.01  -0.04   0.00    -0.01   0.03   0.00
  16   1    -0.13   0.03   0.00     0.38  -0.01   0.00    -0.46   0.02   0.00
  17   1     0.22   0.44   0.00     0.18   0.27   0.00    -0.09  -0.15   0.00
  18   1     0.21  -0.42   0.00    -0.18   0.27   0.00     0.09  -0.15   0.00
                    31                     32                     33
                     A                      A                      A
 Frequencies --  1327.2665              1459.2741              1463.1802
 Red. masses --     5.0729                 3.7147                 4.3299
 Frc consts  --     5.2653                 4.6607                 5.4617
 IR Inten    --     1.3798                16.7401                13.6885
 Atom AN      X      Y      Z        X      Y      Z        X      Y      Z
   1   6     0.01   0.20   0.00     0.05   0.08   0.00    -0.16   0.03   0.00
   2   6    -0.11   0.05   0.00     0.11  -0.14   0.00     0.20   0.09   0.00
   3   6     0.28   0.00   0.00     0.00   0.21   0.00     0.02   0.00   0.00
   4   6     0.28   0.00   0.00     0.00   0.21   0.00     0.02   0.00   0.00
   5   6    -0.11  -0.05   0.00    -0.10  -0.14   0.00     0.20  -0.09   0.00
   6   6     0.01  -0.20   0.00    -0.05   0.08   0.00    -0.16  -0.03   0.00
   7   1    -0.36  -0.06   0.00     0.00  -0.13   0.00    -0.28  -0.10   0.00
   8   1    -0.05   0.10   0.00    -0.19  -0.37   0.00    -0.26  -0.14   0.00
   9   1    -0.39   0.06   0.00     0.00  -0.13   0.00    -0.28   0.10   0.00
  10   6    -0.11  -0.05   0.00    -0.10  -0.14   0.00     0.20  -0.09   0.00
  11   6    -0.11   0.05   0.00     0.11  -0.14   0.00     0.20   0.09   0.00
  12   1    -0.36  -0.06   0.00     0.00  -0.13   0.00    -0.28  -0.10   0.00
  13   1    -0.05  -0.10   0.00     0.19  -0.37   0.00    -0.26   0.14   0.00
  14   6     0.01   0.20   0.00     0.05   0.08   0.00    -0.16   0.03   0.00
  15   6     0.01  -0.20   0.00    -0.05   0.08   0.00    -0.16  -0.03   0.00
  16   1    -0.39   0.06   0.00     0.00  -0.13   0.00    -0.28   0.10   0.00
  17   1    -0.05   0.10   0.00    -0.19  -0.37   0.00    -0.26  -0.13   0.00
  18   1    -0.05  -0.10   0.00     0.19  -0.37   0.00    -0.26   0.14   0.00
                    34                     35                     36
                     A                      A                      A
 Frequencies --  1532.1996              1606.5879              1619.5619
 Red. masses --     3.3135                 8.9897                 6.3602
 Frc consts  --     4.5832                13.6711                 9.8292
 IR Inten    --     0.0000                 0.0002                 0.0001
 Atom AN      X      Y      Z        X      Y      Z        X      Y      Z
   1   6     0.03  -0.18   0.00    -0.15  -0.06   0.00     0.19   0.12   0.00
   2   6    -0.11   0.00   0.00     0.27   0.01   0.00    -0.02  -0.14   0.00
   3   6     0.00   0.12   0.00    -0.01   0.39   0.00    -0.32  -0.01   0.00
   4   6     0.00  -0.12   0.00     0.01  -0.39   0.00     0.32   0.01   0.00
   5   6    -0.11   0.00   0.00     0.27  -0.02   0.00     0.00  -0.14   0.00
   6   6     0.03   0.18   0.00    -0.16   0.07   0.00    -0.18   0.12   0.00
   7   1    -0.40  -0.01   0.00    -0.11   0.05   0.00    -0.05   0.13   0.00
   8   1     0.18   0.09   0.00    -0.20  -0.14   0.00    -0.05  -0.32   0.00
   9   1     0.40  -0.01   0.00     0.11   0.03   0.00    -0.06  -0.14   0.00
  10   6     0.11   0.00   0.00    -0.28   0.02   0.00     0.00   0.14   0.00
  11   6     0.11   0.00   0.00    -0.28  -0.01   0.00     0.01   0.14   0.00
  12   1     0.40   0.01   0.00     0.12  -0.05   0.00     0.05  -0.13   0.00
  13   1     0.18  -0.10   0.00    -0.19   0.11   0.00     0.06  -0.33   0.00
  14   6    -0.03   0.18   0.00     0.15   0.06   0.00    -0.19  -0.12   0.00
  15   6    -0.03  -0.18   0.00     0.16  -0.07   0.00     0.18  -0.12   0.00
  16   1    -0.40   0.01   0.00    -0.11  -0.03   0.00     0.06   0.14   0.00
  17   1    -0.18  -0.10   0.00     0.20   0.14   0.00     0.05   0.32   0.00
  18   1    -0.18   0.10   0.00     0.19  -0.11   0.00    -0.06   0.32   0.00
                    37                     38                     39
                     A                      A                      A
 Frequencies --  1694.4728              1756.0760              1793.2591
 Red. masses --     8.8549                10.6530                 9.8105
 Frc consts  --    14.9798                19.3557                18.5878
 IR Inten    --     3.1021                 0.0001                 2.3924
 Atom AN      X      Y      Z        X      Y      Z        X      Y      Z
   1   6     0.10   0.29   0.00     0.15   0.27   0.00     0.25   0.14   0.00
   2   6     0.09  -0.15   0.00    -0.13  -0.15   0.00    -0.33  -0.08   0.00
   3   6    -0.33   0.00   0.00     0.00   0.40   0.00     0.00  -0.07   0.00
   4   6    -0.33   0.00   0.00     0.00  -0.40   0.00    -0.01  -0.07   0.00
   5   6     0.09   0.15   0.00    -0.14   0.15   0.00     0.33  -0.08   0.00
   6   6     0.10  -0.29   0.00     0.15  -0.28   0.00    -0.25   0.14   0.00
   7   1    -0.18   0.14   0.00    -0.13  -0.12   0.00    -0.07  -0.09   0.00
   8   1    -0.09  -0.11   0.00     0.00  -0.04   0.00     0.05  -0.18   0.00
   9   1    -0.18  -0.14   0.00     0.12  -0.12   0.00     0.08  -0.10   0.00
  10   6     0.09   0.15   0.00     0.14  -0.15   0.00     0.33  -0.08   0.00
  11   6     0.09  -0.15   0.00     0.13   0.15   0.00    -0.32  -0.08   0.00
  12   1    -0.18   0.14   0.00     0.13   0.12   0.00    -0.08  -0.09   0.00
  13   1    -0.09   0.11   0.00     0.00   0.04   0.00    -0.05  -0.18   0.00
  14   6     0.10   0.29   0.00    -0.15  -0.27   0.00     0.25   0.14   0.00
  15   6     0.10  -0.29   0.00    -0.15   0.27   0.00    -0.25   0.14   0.00
  16   1    -0.18  -0.14   0.00    -0.12   0.12   0.00     0.07  -0.09   0.00
  17   1    -0.09  -0.11   0.00     0.00   0.04   0.00     0.05  -0.18   0.00
  18   1    -0.09   0.11   0.00     0.00  -0.04   0.00    -0.05  -0.18   0.00
                    40                     41                     42
                     A                      A                      A
 Frequencies --  1806.7451              3181.2274              3181.5856
 Red. masses --    10.7247                 1.0764                 1.0764
 Frc consts  --    20.6266                 6.4180                 6.4197
 IR Inten    --     0.0006                20.5526                 0.3234
 Atom AN      X      Y      Z        X      Y      Z        X      Y      Z
   1   6     0.18   0.11   0.00    -0.02   0.01   0.00     0.03  -0.02   0.00
   2   6    -0.33  -0.03   0.00     0.00  -0.03   0.00     0.00   0.04   0.00
   3   6     0.35   0.00   0.00     0.00   0.00   0.00     0.00   0.00   0.00
   4   6    -0.35   0.00   0.00     0.00   0.00   0.00     0.00   0.00   0.00
   5   6     0.33  -0.03   0.00     0.00  -0.02   0.00     0.00   0.03   0.00
   6   6    -0.18   0.10   0.00     0.02   0.01   0.00    -0.02  -0.01   0.00
   7   1     0.12   0.05   0.00     0.00   0.37   0.00     0.00   0.29   0.00
   8   1     0.04  -0.10   0.00     0.29  -0.16   0.00    -0.38   0.21   0.00
   9   1     0.12  -0.05   0.00     0.00   0.32   0.00     0.00  -0.46   0.00
  10   6    -0.34   0.03   0.00     0.00  -0.03   0.00     0.00  -0.02   0.00
  11   6     0.34   0.04   0.00     0.00  -0.03   0.00     0.00  -0.03   0.00
  12   1    -0.12  -0.04   0.00     0.00   0.24   0.00     0.00  -0.33   0.00
  13   1    -0.04  -0.10   0.00    -0.25  -0.14   0.00     0.32   0.18   0.00
  14   6    -0.19  -0.11   0.00    -0.03   0.02   0.00    -0.02   0.01   0.00
  15   6     0.19  -0.11   0.00     0.03   0.02   0.00     0.02   0.01   0.00
  16   1    -0.12   0.05   0.00     0.00   0.42   0.00     0.00   0.32   0.00
  17   1    -0.04   0.11   0.00     0.37  -0.20   0.00     0.26  -0.14   0.00
  18   1     0.04   0.11   0.00    -0.34  -0.19   0.00    -0.24  -0.13   0.00
                    43                     44                     45
                     A                      A                      A
 Frequencies --  3183.4638              3183.9478              3189.5328
 Red. masses --     1.0759                 1.0761                 1.0806
 Frc consts  --     6.4241                 6.4273                 6.4770
 IR Inten    --    29.3733                 3.4539                12.2298
 Atom AN      X      Y      Z        X      Y      Z        X      Y      Z
   1   6     0.01   0.00   0.00     0.02  -0.01   0.00     0.02  -0.01   0.00
   2   6     0.00   0.02   0.00     0.00   0.04   0.00     0.00  -0.02   0.00
   3   6     0.00   0.00   0.00     0.00   0.00   0.00     0.00   0.00   0.00
   4   6     0.00   0.00   0.00     0.00   0.00   0.00     0.00   0.00   0.00
   5   6     0.00  -0.02   0.00     0.00  -0.04   0.00     0.00  -0.02   0.00
   6   6     0.01   0.01   0.00     0.03   0.01   0.00    -0.01  -0.01   0.00
   7   1     0.00   0.56   0.00     0.00  -0.28   0.00     0.00  -0.45   0.00
   8   1    -0.10   0.06   0.00    -0.23   0.13   0.00    -0.20   0.11   0.00
   9   1     0.00  -0.25   0.00     0.00  -0.49   0.00     0.00   0.21   0.00
  10   6     0.00  -0.04   0.00     0.00   0.02   0.00     0.00   0.04   0.00
  11   6     0.00   0.04   0.00     0.00  -0.02   0.00     0.00   0.04   0.00
  12   1     0.00   0.29   0.00     0.00   0.57   0.00     0.00   0.22   0.00
  13   1    -0.17  -0.10   0.00    -0.35  -0.20   0.00     0.18   0.10   0.00
  14   6     0.02  -0.01   0.00    -0.01   0.00   0.00    -0.03   0.02   0.00
  15   6     0.02   0.01   0.00    -0.01  -0.01   0.00     0.03   0.02   0.00
  16   1     0.00  -0.53   0.00     0.00   0.25   0.00    -0.01  -0.44   0.00
  17   1    -0.26   0.14   0.00     0.13  -0.07   0.00     0.41  -0.22   0.00
  18   1    -0.30  -0.17   0.00     0.16   0.09   0.00    -0.39  -0.21   0.00
                    46                     47                     48
                     A                      A                      A
 Frequencies --  3189.7472              3197.8979              3198.9423
 Red. masses --     1.0807                 1.0883                 1.0880
 Frc consts  --     6.4786                 6.5573                 6.5599
 IR Inten    --   103.0043               105.1295                 0.0081
 Atom AN      X      Y      Z        X      Y      Z        X      Y      Z
   1   6    -0.03   0.02   0.00     0.03  -0.02   0.00    -0.03   0.02   0.00
   2   6     0.00   0.04   0.00     0.00  -0.02   0.00     0.00   0.02   0.00
   3   6     0.00   0.00   0.00     0.00   0.00   0.00     0.00   0.00   0.00
   4   6     0.00   0.00   0.00     0.00   0.00   0.00     0.00   0.00   0.00
   5   6     0.00   0.04   0.00     0.00   0.02   0.00     0.00  -0.02   0.00
   6   6     0.03   0.02   0.00     0.03   0.02   0.00    -0.03  -0.02   0.00
   7   1     0.00  -0.22   0.00     0.00  -0.25   0.00     0.00  -0.26   0.00
   8   1     0.40  -0.22   0.00    -0.36   0.20   0.00     0.36  -0.20   0.00
   9   1     0.00  -0.46   0.00     0.00   0.24   0.00     0.00  -0.26   0.00
  10   6     0.00   0.02   0.00     0.00   0.02   0.00     0.00   0.02   0.00
  11   6     0.00   0.02   0.00     0.00  -0.02   0.00     0.00  -0.02   0.00
  12   1     0.00  -0.48   0.00     0.00  -0.27   0.00     0.00   0.28   0.00
  13   1    -0.36  -0.19   0.00    -0.38  -0.21   0.00     0.38   0.21   0.00
  14   6    -0.01   0.01   0.00     0.03  -0.02   0.00     0.03  -0.02   0.00
  15   6     0.01   0.01   0.00     0.03   0.02   0.00     0.03   0.02   0.00
  16   1     0.00  -0.22   0.00     0.00   0.25   0.00     0.00   0.26   0.00
  17   1     0.19  -0.10   0.00    -0.38   0.21   0.00    -0.37   0.20   0.00
  18   1    -0.18  -0.10   0.00    -0.38  -0.21   0.00    -0.37  -0.21   0.00

 -------------------
 - Thermochemistry -
 -------------------
 Temperature   298.150 Kelvin.  Pressure   1.00000 Atm.
 Atom  1 has atomic number  6 and mass  12.00000
 Atom  2 has atomic number  6 and mass  12.00000
 Atom  3 has atomic number  6 and mass  12.00000
 Atom  4 has atomic number  6 and mass  12.00000
 Atom  5 has atomic number  6 and mass  12.00000
 Atom  6 has atomic number  6 and mass  12.00000
 Atom  7 has atomic number  1 and mass   1.00783
 Atom  8 has atomic number  1 and mass   1.00783
 Atom  9 has atomic number  1 and mass   1.00783
 Atom 10 has atomic number  6 and mass  12.00000
 Atom 11 has atomic number  6 and mass  12.00000
 Atom 12 has atomic number  1 and mass   1.00783
 Atom 13 has atomic number  1 and mass   1.00783
 Atom 14 has atomic number  6 and mass  12.00000
 Atom 15 has atomic number  6 and mass  12.00000
 Atom 16 has atomic number  1 and mass   1.00783
 Atom 17 has atomic number  1 and mass   1.00783
 Atom 18 has atomic number  1 and mass   1.00783
 Molecular mass:   128.06260 amu.
 Principal axes and moments of inertia in atomic units:
                           1         2         3
     EIGENVALUES --   578.259211461.016262039.27547
           X            1.00000  -0.00001   0.00004
           Y            0.00001   1.00000   0.00022
           Z           -0.00004  -0.00022   1.00000
 This molecule is an asymmetric top.
 Rotational symmetry number  1.
 Warning -- assumption of classical behavior for rotation
           may cause significant error
 Rotational temperatures (Kelvin)      0.14978     0.05928     0.04247
 Rotational constants (GHZ):           3.12099     1.23526     0.88499
 Zero-point vibrational energy     398127.7 (Joules/Mol)
                                   95.15481 (Kcal/Mol)
 Warning -- explicit consideration of   9 degrees of freedom as
           vibrations may cause significant error
 Vibrational temperatures:    234.82   236.67   500.87   576.40   634.84
          (Kelvin)            686.54   786.03   787.13   795.27   954.47
                             1083.59  1121.90  1204.85  1227.07  1286.46
                             1349.40  1374.99  1386.21  1392.59  1419.32
                             1438.70  1447.73  1679.28  1688.30  1711.04
                             1735.38  1739.11  1740.70  1846.71  1898.41
                             1909.64  2099.57  2105.19  2204.49  2311.52
                             2330.19  2437.97  2526.60  2580.10  2599.50
                             4577.07  4577.59  4580.29  4580.99  4589.02
                             4589.33  4601.06  4602.56
 
 Zero-point correction=                           0.151639 (Hartree/Particle)
 Thermal correction to Energy=                    0.158412
 Thermal correction to Enthalpy=                  0.159356
 Thermal correction to Gibbs Free Energy=         0.120317
 Sum of electronic and zero-point Energies=              0.216053
 Sum of electronic and thermal Energies=                 0.222826
 Sum of electronic and thermal Enthalpies=               0.223770
 Sum of electronic and thermal Free Energies=            0.184730
 
                     E (Thermal)             CV                S
                      KCal/Mol        Cal/Mol-Kelvin    Cal/Mol-Kelvin
 Total                   99.405             27.875             82.165
 Electronic               0.000              0.000              0.000
 Translational            0.889              2.981             40.455
 Rotational               0.889              2.981             28.934
 Vibrational             97.627             21.913             12.776
 Vibration  1             0.623              1.888              2.512
 Vibration  2             0.623              1.886              2.497
 Vibration  3             0.726              1.579              1.175
 Vibration  4             0.766              1.469              0.960
 Vibration  5             0.801              1.380              0.823
 Vibration  6             0.834              1.301              0.718
 Vibration  7             0.902              1.148              0.552
 Vibration  8             0.902              1.146              0.550
 Vibration  9             0.908              1.134              0.539
                       Q            Log10(Q)             Ln(Q)
 Total Bot       0.455341D-55        -55.341663       -127.428889
 Total V=0       0.255396D+15         14.407214         33.173837
 Vib (Bot)       0.170128D-68        -68.769225       -158.346993
 Vib (Bot)  1    0.123746D+01          0.092532          0.213062
 Vib (Bot)  2    0.122728D+01          0.088945          0.204802
 Vib (Bot)  3    0.530623D+00         -0.275214         -0.633703
 Vib (Bot)  4    0.444701D+00         -0.351932         -0.810354
 Vib (Bot)  5    0.391401D+00         -0.407378         -0.938022
 Vib (Bot)  6    0.351346D+00         -0.454265         -1.045984
 Vib (Bot)  7    0.288270D+00         -0.540201         -1.243859
 Vib (Bot)  8    0.287656D+00         -0.541126         -1.245988
 Vib (Bot)  9    0.283172D+00         -0.547950         -1.261702
 Vib (V=0)       0.954229D+01          0.979653          2.255734
 Vib (V=0)  1    0.183466D+01          0.263555          0.606858
 Vib (V=0)  2    0.182523D+01          0.261317          0.601704
 Vib (V=0)  3    0.122908D+01          0.089581          0.206268
 Vib (V=0)  4    0.116915D+01          0.067869          0.156275
 Vib (V=0)  5    0.113498D+01          0.054987          0.126612
 Vib (V=0)  6    0.111110D+01          0.045753          0.105351
 Vib (V=0)  7    0.107715D+01          0.032275          0.074316
 Vib (V=0)  8    0.107684D+01          0.032152          0.074032
 Vib (V=0)  9    0.107462D+01          0.031254          0.071966
 Electronic      0.100000D+01          0.000000          0.000000
 Translational   0.569624D+08          7.755589         17.857903
 Rotational      0.469865D+06          5.671973         13.060201
 ***** Axes restored to original set *****
 -------------------------------------------------------------------
 Center     Atomic                   Forces (Hartrees/Bohr)
 Number     Number              X              Y              Z
 -------------------------------------------------------------------
    1          6          -0.000283390   -0.000084407    0.000012745
    2          6           0.000295885    0.000009844   -0.000026435
    3          6          -0.000272068   -0.000203382    0.000015562
    4          6           0.000652463    0.000160147   -0.000002253
    5          6          -0.000157878   -0.000536087   -0.000024283
    6          6           0.000060394    0.000371538    0.000017125
    7          1          -0.000064546   -0.000027527   -0.000013046
    8          1          -0.000003340   -0.000015544   -0.000002512
    9          1          -0.000004821    0.000003594    0.000005035
   10          6          -0.000047723    0.000094823    0.000017182
   11          6          -0.000199524    0.000141449    0.000000438
   12          1          -0.000009137    0.000024856    0.000009336
   13          1          -0.000006830   -0.000005652   -0.000004965
   14          6           0.000116115   -0.000019984   -0.000033344
   15          6          -0.000080982    0.000092288    0.000018111
   16          1          -0.000005455   -0.000000425    0.000002423
   17          1           0.000008168    0.000018240    0.000012445
   18          1           0.000002669   -0.000023771   -0.000003565
 -------------------------------------------------------------------
 Cartesian Forces:  Max     0.000652463 RMS     0.000155580
 ------------------------------------------------------------------------
           Internal Coordinate Forces (Hartree/Bohr or radian)
 Cent Atom N1     Length/X     N2     Alpha/Y      N3      Beta/Z       J
 ------------------------------------------------------------------------
   1  C        -0.000283(   1)     -0.000084(  19)      0.000013(  37)
   2  C         0.000296(   2)      0.000010(  20)     -0.000026(  38)
   3  C        -0.000272(   3)     -0.000203(  21)      0.000016(  39)
   4  C         0.000652(   4)      0.000160(  22)     -0.000002(  40)
   5  C        -0.000158(   5)     -0.000536(  23)     -0.000024(  41)
   6  C         0.000060(   6)      0.000372(  24)      0.000017(  42)
   7  H        -0.000065(   7)     -0.000028(  25)     -0.000013(  43)
   8  H        -0.000003(   8)     -0.000016(  26)     -0.000003(  44)
   9  H        -0.000005(   9)      0.000004(  27)      0.000005(  45)
  10  C        -0.000048(  10)      0.000095(  28)      0.000017(  46)
  11  C        -0.000200(  11)      0.000141(  29)      0.000000(  47)
  12  H        -0.000009(  12)      0.000025(  30)      0.000009(  48)
  13  H        -0.000007(  13)     -0.000006(  31)     -0.000005(  49)
  14  C         0.000116(  14)     -0.000020(  32)     -0.000033(  50)
  15  C        -0.000081(  15)      0.000092(  33)      0.000018(  51)
  16  H        -0.000005(  16)      0.000000(  34)      0.000002(  52)
  17  H         0.000008(  17)      0.000018(  35)      0.000012(  53)
  18  H         0.000003(  18)     -0.000024(  36)     -0.000004(  54)
 ------------------------------------------------------------------------
 Internal  Forces:  Max     0.000652463 RMS     0.000155580

 GradGradGradGradGradGradGradGradGradGradGradGradGradGradGradGradGradGrad
 Berny optimization.
 Search for a local minimum.
 Step number   1 out of a maximum of   2
 All quantities printed in internal units (Hartrees-Bohrs-Radians)
 Second derivative matrix not updated -- analytic derivatives used.
     Eigenvalues ---    0.00304   0.00382   0.00996   0.01459   0.01852
     Eigenvalues ---    0.02067   0.02159   0.04791   0.05022   0.05414
     Eigenvalues ---    0.05481   0.05564   0.05912   0.06619   0.06998
     Eigenvalues ---    0.07284   0.08770   0.09448   0.11813   0.12047
     Eigenvalues ---    0.14050   0.15410   0.19261   0.20304   0.22384
     Eigenvalues ---    0.23441   0.24752   0.26137   0.28141   0.34491
     Eigenvalues ---    0.34550   0.43598   0.56780   0.58280   0.69265
     Eigenvalues ---    0.79067   0.82450   0.84276   0.88436   1.08190
     Eigenvalues ---    1.09071   1.19332   1.25075   1.27759   1.35863
     Eigenvalues ---    1.43350   1.49921   1.50858
 Angle between quadratic step and forces=  61.38 degrees.
 Linear search not attempted -- first point.
 TrRot=  0.000061  0.000099  0.000002  0.000006 -0.000002  0.000006
 Variable       Old X    -DE/DX   Delta X   Delta X   Delta X     New X
                                 (Linear)    (Quad)   (Total)
    X1      -11.96915  -0.00028   0.00000  -0.00065  -0.00057 -11.96972
    Y1       -1.23012  -0.00008   0.00000  -0.00065  -0.00069  -1.23080
    Z1        0.00050   0.00001   0.00000   0.00012   0.00011   0.00061
    X2       -9.37494   0.00030   0.00000  -0.00028  -0.00020  -9.37514
    Y2       -1.23012   0.00001   0.00000  -0.00060  -0.00061  -1.23072
    Z2        0.00050  -0.00003   0.00000  -0.00022  -0.00024   0.00026
    X3       -8.01067  -0.00027   0.00000  -0.00034  -0.00029  -8.01096
    Y3        1.08503  -0.00020   0.00000  -0.00064  -0.00063   1.08440
    Z3        0.00050   0.00002   0.00000  -0.00004  -0.00005   0.00044
    X4       -9.36725   0.00065   0.00000   0.00154   0.00156  -9.36569
    Y4        3.39780   0.00016   0.00000   0.00021   0.00020   3.39800
    Z4        0.00120   0.00000   0.00000  -0.00020  -0.00021   0.00098
    X5      -12.05334  -0.00016   0.00000   0.00107   0.00109 -12.05224
    Y5        3.34229  -0.00054   0.00000  -0.00103  -0.00107   3.34122
    Z5        0.00149  -0.00002   0.00000  -0.00014  -0.00016   0.00133
    X6      -13.32230   0.00006   0.00000   0.00028   0.00033 -13.32197
    Y6        1.07845   0.00037   0.00000   0.00016   0.00011   1.07856
    Z6        0.00094   0.00002   0.00000   0.00023   0.00021   0.00115
    X7       -4.28966  -0.00006   0.00000  -0.00088  -0.00081  -4.29047
    Y7       -0.66290  -0.00003   0.00000   0.00004   0.00009  -0.66281
    Z7        0.00004  -0.00001   0.00000  -0.00035  -0.00036  -0.00032
    X8      -13.02878   0.00000   0.00000  -0.00085  -0.00075 -13.02953
    Y8       -3.01845  -0.00002   0.00000  -0.00048  -0.00053  -3.01898
    Z8        0.00035   0.00000   0.00000   0.00014   0.00012   0.00047
    X9       -8.30764   0.00000   0.00000  -0.00031  -0.00021  -8.30785
    Y9       -3.01462   0.00000   0.00000  -0.00057  -0.00057  -3.01519
    Z9        0.00007   0.00001   0.00000  -0.00021  -0.00023  -0.00016
   X10       -5.32400  -0.00005   0.00000  -0.00046  -0.00041  -5.32441
   Y10        1.14086   0.00009   0.00000   0.00029   0.00033   1.14118
   Z10        0.00000   0.00002   0.00000   0.00010   0.00010   0.00010
   X11       -8.00145  -0.00020   0.00000  -0.00006  -0.00006  -8.00151
   Y11        5.71220   0.00014   0.00000   0.00092   0.00093   5.71313
   Z11        0.00141   0.00000   0.00000  -0.00024  -0.00025   0.00116
   X12      -13.08747  -0.00001   0.00000   0.00129   0.00129 -13.08618
   Y12        5.14595   0.00002   0.00000  -0.00069  -0.00073   5.14522
   Z12        0.00164   0.00001   0.00000   0.00013   0.00011   0.00175
   X13      -15.40031  -0.00001   0.00000   0.00023   0.00027 -15.40003
   Y13        1.02862  -0.00001   0.00000   0.00080   0.00073   1.02935
   Z13        0.00113   0.00000   0.00000   0.00030   0.00028   0.00141
   X14       -5.40712   0.00012   0.00000   0.00020   0.00019  -5.40693
   Y14        5.71232  -0.00002   0.00000   0.00084   0.00088   5.71321
   Z14        0.00090  -0.00003   0.00000  -0.00007  -0.00008   0.00082
   X15       -4.05405  -0.00008   0.00000  -0.00065  -0.00063  -4.05468
   Y15        3.40328   0.00009   0.00000   0.00051   0.00057   3.40385
   Z15        0.00003   0.00002   0.00000   0.00025   0.00025   0.00028
   X16       -9.06812  -0.00001   0.00000  -0.00066  -0.00068  -9.06880
   Y16        7.49712   0.00000   0.00000   0.00048   0.00048   7.49760
   Z16        0.00190   0.00000   0.00000  -0.00031  -0.00032   0.00158
   X17       -4.34756   0.00001   0.00000   0.00047   0.00045  -4.34712
   Y17        7.50063   0.00002   0.00000   0.00070   0.00075   7.50139
   Z17        0.00056   0.00001   0.00000   0.00040   0.00039   0.00096
   X18       -1.97606   0.00000   0.00000  -0.00058  -0.00056  -1.97662
   Y18        3.45330  -0.00002   0.00000  -0.00032  -0.00024   3.45305
   Z18       -0.00031   0.00000   0.00000   0.00033   0.00033   0.00001
         Item               Value     Threshold  Converged?
 Maximum Force            0.000652     0.000450     NO 
 RMS     Force            0.000156     0.000300     YES
 Maximum Displacement     0.001559     0.001800     YES
 RMS     Displacement     0.000558     0.001200     YES
 Predicted change in Energy=-1.125206D-06
 GradGradGradGradGradGradGradGradGradGradGradGradGradGradGradGradGradGrad

 1\1\GINC-MINT-SQUARE\Freq\RAM1\ZDO\C10H8\DTW\30-Aug-2014\0\\# freq=nor
 aman am1 geom=connectivity\\Title Card Required\\0,1\C,-6.33380331,-0.
 65094884,0.000263\C,-4.96100231,-0.65094884,0.000263\C,-4.23906431,0.5
 7417216,0.000263\C,-4.95693431,1.79803816,0.000633\C,-6.37835031,1.768
 66516,0.000787\C,-7.04985531,0.57069016,0.000497\H,-2.26999131,-0.3507
 9284,0.00002\H,-6.89453431,-1.59729484,0.000183\H,-4.39621331,-1.59527
 084,0.000035\C,-2.81733731,0.60371516,0.\C,-4.23418431,3.02276416,0.00
 0748\H,-6.92559131,2.72312116,0.000869\H,-8.14949231,0.54432316,0.0005
 99\C,-2.86132331,3.02283216,0.000475\C,-2.14531131,1.80094016,0.000016
 \H,-4.79864031,3.96730516,0.001008\H,-2.30063131,3.96916316,0.000297\H
 ,-1.04568331,1.82740516,-0.000166\\Version=IA32L-G03RevD.01\State=1-A\
 HF=0.0644139\RMSD=0.000e+00\RMSF=1.556e-04\ZeroPoint=0.1516388\Thermal
 =0.1584118\Dipole=0.0000036,-0.0001231,-0.0000604\DipoleDeriv=-0.14051
 17,0.0220059,0.0000161,-0.0097689,-0.0457746,0.0000083,-0.0000108,-0.0
 00013,-0.1421555,-0.1491798,-0.0294602,-0.0000034,0.0167914,-0.0474853
 ,0.000004,-0.0000369,0.0000631,-0.1569151,-0.0164803,0.1103155,-0.0000
 061,0.1100029,-0.1406438,-0.000023,0.0000322,-0.0000082,0.0187554,-0.0
 164286,0.1104388,0.0000248,0.1103531,-0.1402667,-0.0000358,0.0000408,-
 0.0000022,0.0188482,-0.0774891,-0.023774,-0.0000049,-0.0699663,-0.1198
 395,0.0000086,0.0000248,-0.0000417,-0.1570807,-0.063202,-0.0530955,-0.
 0000108,-0.0210948,-0.1224363,0.0000197,-0.0000311,0.0000337,-0.142074
 2,0.0867594,-0.0668055,0.0000084,-0.0632887,0.1318031,0.0000098,0.0000
 146,0.0000341,0.1440462,0.0962151,0.0564844,0.0000069,0.092787,0.14663
 09,-0.0000014,0.0000269,0.000008,0.1456198,0.0654861,-0.0514052,0.0000
 013,-0.0547571,0.1529155,0.0000084,0.0000155,-0.0000196,0.143956,-0.07
 73371,-0.0236171,-0.0000023,-0.0697831,-0.1196987,-0.0000271,-0.000015
 9,-0.0000769,-0.1570694,-0.1493188,-0.0294033,0.0000081,0.0169439,-0.0
 473597,0.0000413,0.0000382,0.0000547,-0.1570003,0.0869106,-0.0668546,-
 0.0000093,-0.0634509,0.1320374,0.0000018,-0.0000204,0.0000342,0.144131
 4,0.1984509,0.0356527,0.0000002,-0.0007453,0.0446086,-0.0000219,0.0000
 202,-0.0000083,0.1456529,-0.1404747,0.0218979,-0.0000344,-0.0099704,-0
 .04568,-0.000007,-0.0001082,-0.0000484,-0.142175,-0.0632734,-0.0533144
 ,-0.0000218,-0.0214948,-0.1224451,0.0000455,-0.0000004,0.0000599,-0.14
 20691,0.0653681,-0.05126,0.0000021,-0.0547689,0.1526874,0.000011,-0.00
 00061,0.0000263,0.143893,0.0962478,0.0564905,0.0000262,0.0928982,0.146
 6136,-0.000021,0.0000496,-0.0000089,0.1456387,0.198571,0.035705,-0.000
 001,-0.0006845,0.0446484,-0.0000211,-0.0000359,-0.0000364,0.145698\PG=
 C01 [X(C10H8)]\NImag=0\\0.84122669,0.01364795,0.74173238,-0.00001984,0
 .00008748,0.14859822,-0.46853956,-0.05298106,-0.00001059,0.86299531,0.
 05043388,-0.10237422,-0.00000951,-0.00965388,0.72928679,0.00000600,-0.
 00000251,-0.06739964,-0.00004727,0.00006751,0.14958873,-0.09333091,-0.
 02255159,0.00000573,-0.11690846,-0.12988162,-0.00000329,0.84957089,-0.
 09761152,0.02670843,0.00001177,-0.08241023,-0.29972366,-0.00000211,0.0
 2456265,0.82164329,-0.00000664,0.00000359,0.00680550,0.00000549,0.0000
 0158,-0.07222717,-0.00012403,0.00009317,0.16787065,-0.06772611,0.03952
 747,0.00000989,0.07621742,0.03490106,-0.00000034,-0.19679908,0.0966787
 9,0.00004184,0.85019910,-0.00054013,-0.00324557,0.00000036,0.00105503,
 -0.07088322,-0.00001434,0.09686443,-0.30478782,-0.00006180,0.02463767,
 0.82135070,0.00000760,-0.00000464,-0.00390488,-0.00000778,-0.00001466,
 0.00625263,0.00004226,-0.00006712,-0.07721042,-0.00008573,0.00012455,0
 .16782434,0.08242581,-0.03940135,-0.00001038,-0.06779442,-0.03586278,-
 0.00000007,-0.02018442,0.08885544,0.00001886,-0.34716538,-0.00088830,0
 .00003049,0.75325485,0.04141338,-0.10862910,-0.00002628,-0.03786550,-0
 .02639042,-0.00000126,0.05507821,0.02566208,-0.00000551,0.04662799,-0.
 07008943,-0.00000297,0.05099196,0.83825352,-0.00000023,-0.00001796,0.0
 0762659,0.00000008,-0.00000043,-0.00215943,0.00001182,-0.00000659,0.00
 620755,0.00003443,-0.00000221,-0.07214061,-0.00001360,0.00013236,0.149
 68467,-0.16243861,0.16547733,0.00003150,-0.06216285,0.04162771,0.00000
 931,-0.00198199,0.00271065,0.00000001,-0.05333912,-0.04504902,-0.00000
 658,-0.19077219,-0.20784049,-0.00004731,0.77724492,0.06111235,-0.28928
 660,-0.00003588,0.12250616,0.03585008,-0.00000305,-0.03737722,-0.06885
 425,-0.00000534,-0.12022052,-0.01332299,0.00000697,-0.10438400,-0.3788
 7546,-0.00008504,0.04877167,0.80452919,0.00001415,-0.00004336,-0.07215
 468,0.00002204,0.00000425,0.00763423,-0.00000650,-0.00001135,-0.003911
 60,-0.00001847,-0.00000101,0.00681265,-0.00002808,-0.00007393,-0.06755
 999,-0.00001323,0.00013573,0.14874325,0.00000942,0.00019906,0.00000007
 ,-0.00092129,0.00018449,0.00000013,-0.02883511,0.02732324,0.00000586,-
 0.00333061,-0.00118748,0.00000072,-0.00010507,0.00078711,0.00000017,0.
 00001981,-0.00009795,0.00000011,0.13227005,-0.00005571,-0.00015704,-0.
 00000004,-0.00040882,0.00058665,0.00000010,0.00891880,-0.00119973,-0.0
 0000083,-0.00041144,0.00021147,0.00000036,-0.00000953,0.00003702,0.,0.
 00002029,-0.00004219,-0.00000006,-0.13180959,0.28609535,-0.00000942,0.
 00000582,-0.00010240,0.00000913,0.00000574,-0.00117879,-0.00000439,-0.
 00000918,0.00645503,-0.00000859,-0.00000672,0.00383715,0.00000969,0.00
 000533,-0.00038144,0.00000052,-0.00001111,-0.00008352,-0.00000474,0.00
 000087,0.02369584,-0.10944225,-0.12040289,-0.00001166,-0.02889184,-0.0
 2874654,-0.00000243,-0.00327792,0.00085584,0.00000034,0.00009573,0.000
 14695,0.,-0.00135173,0.00175776,0.00000047,0.00776026,0.01146785,0.000
 00185,0.00000653,-0.00001077,0.00000004,0.13571458,-0.12085544,-0.2414
 6004,-0.00001709,-0.00955732,-0.00172657,-0.00000038,0.00031803,0.0000
 6571,-0.00000088,0.00001060,0.00025597,0.00000007,0.00233712,-0.002035
 72,-0.00000063,-0.00721701,-0.03729775,-0.00000566,-0.00003667,0.00003
 961,-0.00000003,0.13481828,0.28231594,-0.00001235,-0.00001472,-0.04245
 508,0.00000098,0.00000040,0.00534032,-0.00000023,-0.00000229,0.0073053
 9,-0.00000174,0.00000033,0.00014337,0.00000233,-0.00000010,0.00396038,
 -0.00000056,-0.00000929,0.00608224,-0.00000002,0.00000002,0.00011272,0
 .00001144,0.00002486,0.02396944,-0.02871574,0.02860688,0.00000641,-0.1
 0994445,0.12046314,0.00002801,0.00764793,-0.01155314,-0.00000147,-0.00
 131471,-0.00153989,0.00000044,0.00020239,-0.00013784,0.00000002,-0.003
 48025,-0.00088570,0.00000044,-0.00060164,-0.00008262,-0.00000006,-0.00
 056443,0.00007250,-0.00000015,0.13678024,0.00936736,-0.00173173,-0.000
 00196,0.12123631,-0.24004334,-0.00004613,0.00684269,-0.03770681,-0.000
 00666,-0.00231637,-0.00180452,-0.00000028,-0.00011211,0.00030141,0.000
 00014,-0.00022606,0.00016241,-0.00000125,-0.00064873,-0.00019111,-0.00
 000006,-0.00006756,0.00048591,0.00000043,-0.13431654,0.28156559,0.0000
 0075,-0.00000184,0.00578886,0.00003161,-0.00004770,-0.04239850,0.00000
 018,-0.00000498,0.00647282,-0.00000011,0.00000010,0.00384265,0.0000008
 9,0.00000043,-0.00000735,0.00000007,-0.00000217,0.00719734,-0.00000004
 ,-0.00000005,0.00018937,-0.00000006,0.00000025,-0.00206016,-0.00003319
 ,0.00005512,0.02369997,0.03102352,-0.01942214,-0.00000425,-0.07854640,
 -0.04784881,0.00000644,-0.34656209,-0.00081246,0.00005217,-0.02011596,
 0.08865709,0.00002072,-0.02865586,-0.01320482,0.00000419,-0.00182251,0
 .03225659,0.00000559,-0.10579232,0.11815682,0.00000857,-0.00026180,0.0
 0011182,0.00000055,0.00012671,-0.00040845,0.00000006,0.75298771,0.0136
 4219,-0.01241875,-0.00000332,-0.05564007,-0.02041921,0.00000543,0.0464
 6300,-0.07009361,-0.00000590,0.05506156,0.02556621,-0.00000785,-0.0131
 9537,-0.01107399,0.,-0.00101372,0.01640795,0.00000324,0.11891200,-0.24
 424095,0.00001116,-0.00070519,0.00017500,0.00000009,-0.00100240,-0.000
 46843,0.00000034,0.05191669,0.83897270,0.00000091,-0.00000092,0.004142
 33,0.00000423,0.00000283,0.00431350,0.00005848,0.00000489,-0.07220191,
 0.00001740,-0.00001430,0.00620247,-0.00000006,-0.00000264,0.00536139,-
 0.00000039,0.00000134,0.00003380,-0.00000043,0.00000165,-0.04238181,0.
 ,-0.00000003,-0.00007028,-0.00000012,0.00000031,-0.00117754,-0.0000847
 2,0.00002602,0.14964593,0.02540246,-0.01627871,-0.00000437,-0.02659749
 ,-0.01439233,0.00000206,0.07607176,0.00110654,-0.00001207,-0.11700799,
 -0.08261768,-0.00000924,-0.07855788,-0.05564085,0.00000268,-0.00449278
 ,0.03362174,0.00000640,0.00016998,-0.00011909,0.00001020,-0.00004178,0
 .00006399,0.00000040,0.00033356,0.00054034,-0.00000008,-0.06768789,-0.
 03776258,0.00000548,0.86291585,0.01698922,-0.01077667,-0.00000288,-0.0
 1439715,-0.01318378,-0.00000141,0.03478347,-0.07090838,-0.00002098,-0.
 12989320,-0.29951000,-0.00002222,-0.04783290,-0.02040520,0.00000355,0.
 00049568,0.02309003,0.00000289,-0.00009527,0.00033323,0.00000617,-0.00
 009265,-0.00003875,0.00000047,-0.00025644,-0.00040365,0.00000019,-0.03
 577133,-0.02635365,0.00000066,-0.00944622,0.72921384,-0.00000006,0.000
 00039,0.00003417,0.00000185,-0.00000169,0.00536167,-0.00000583,-0.0000
 1333,0.00626234,-0.00001805,-0.00003169,-0.07222803,0.00000251,0.00000
 296,0.00431066,0.00000075,-0.00000119,0.00414396,-0.00000007,0.0000001
 5,-0.00000693,-0.00000003,0.00000004,-0.00080444,-0.00000020,-0.000000
 18,-0.00038314,0.00000468,0.00000179,-0.00215488,-0.00014316,0.0001104
 5,0.14962301,-0.00117780,-0.00151810,-0.00000049,0.00016449,-0.0000980
 5,-0.00000002,-0.00332441,-0.00118335,0.00000030,-0.02884353,0.0273400
 2,0.00000595,-0.10582521,0.11898015,0.00001158,0.00801245,-0.01122513,
 -0.00000252,-0.00017785,-0.00001198,-0.00000002,0.00025506,-0.00031299
 ,-0.00000005,-0.00002840,0.00007029,0.,-0.00011127,0.00078354,0.000000
 18,-0.00092296,0.00018111,0.00000007,0.13230746,-0.00217235,-0.0021359
 3,-0.00000149,-0.00012138,0.00033193,-0.00000005,-0.00040862,0.0002131
 3,-0.00000037,0.00893036,-0.00119843,-0.00000126,0.11822401,-0.2443658
 2,-0.00001978,0.00800606,-0.03841970,-0.00000745,-0.00001201,-0.000010
 32,-0.00000003,0.00032447,-0.00044147,-0.00000005,0.00003169,-0.000085
 72,0.00000018,-0.00001231,0.00003558,0.00000008,-0.00041010,0.00058514
 ,0.00000038,-0.13190421,0.28617016,-0.00000410,-0.00000011,0.00719261,
 0.00000324,0.00000226,-0.00000695,-0.00000255,-0.00000253,0.00384571,0
 .00000123,-0.00000415,0.00646066,0.00001328,-0.00001402,-0.04235393,0.
 00000088,-0.00001352,0.00577254,0.00000001,0.,0.00019464,0.00000015,-0
 .00000021,-0.00035527,-0.00000006,0.00000004,-0.00098255,0.00000331,0.
 00000181,-0.00038188,0.00000296,0.00000213,-0.00118098,-0.00001514,0.0
 0002977,0.02368014,-0.02470389,0.01096764,0.00000399,-0.00012632,0.001
 65034,0.00000060,0.00028415,-0.00009496,-0.00000015,-0.00023726,-0.001
 39028,0.00000006,-0.02453211,-0.01196993,-0.00000077,-0.31287766,-0.00
 685916,0.00002321,-0.00000464,0.00002540,0.,0.00014972,0.00029295,-0.0
 0000003,-0.00026997,-0.00001876,-0.00000007,-0.00005095,0.00007012,0.0
 0000004,-0.00018154,0.00006763,0.00000002,0.00023701,-0.00037597,-0.00
 000029,0.36232107,0.02965891,-0.00481176,-0.00000357,0.00107124,-0.003
 26180,-0.00000143,0.00004091,0.00006736,-0.00000008,-0.00085450,-0.002
 98069,-0.00000251,-0.03115664,-0.00605488,-0.00000086,-0.00641490,-0.0
 3810661,0.00000112,-0.00000805,-0.00001479,0.00000003,0.00058803,-0.00
 034339,0.00000011,0.00061877,0.00008329,0.00000014,-0.00008700,-0.0000
 2865,0.00000020,-0.00074959,0.00009621,0.00000014,-0.00051417,-0.00031
 322,0.00000048,0.00781759,0.05574157,0.00000588,-0.00000158,0.00607713
 ,0.00000155,-0.00000034,0.00396274,-0.00000095,-0.00000073,0.00014306,
 -0.00000077,-0.00000305,0.00730256,-0.00000545,-0.00000262,0.00533018,
 0.00002609,0.00000108,-0.04244270,0.,-0.00000001,0.00005371,0.00000008
 ,0.00000003,-0.00089923,0.00000004,0.00000008,-0.00035554,0.00000079,0
 .00000072,-0.00080442,0.00000066,0.00000068,-0.00006941,-0.00000002,0.
 00000020,-0.00205316,-0.00002693,0.00000615,0.02396605,-0.02451277,0.0
 1518146,0.00000418,0.02542546,0.01699740,-0.00000047,-0.06758768,-0.00
 064061,0.00001020,-0.09331998,-0.09735622,0.00000048,0.03105689,0.0136
 7071,-0.00000272,0.00051656,-0.03019876,-0.00000516,-0.00118212,-0.002
 17563,-0.00000900,0.00009747,-0.00002140,-0.00000045,-0.00006014,-0.00
 005357,-0.00000006,0.08233227,0.04131445,-0.00000553,-0.46845028,0.050
 31711,0.00009350,0.00001495,-0.00005313,-0.00000312,-0.00004096,0.0000
 2107,-0.00000110,0.84090314,0.01518685,-0.00934959,-0.00000267,-0.0162
 9795,-0.01078567,0.00000024,0.03945361,-0.00317421,-0.00000675,-0.0224
 4239,0.02666706,0.00000619,-0.01944478,-0.01243861,0.00000042,-0.00104
 194,0.01804391,0.00000269,-0.00151467,-0.00213493,0.00000518,0.0000178
 4,0.00009882,0.00000031,0.00006513,0.00003821,0.00000007,-0.03937829,-
 0.10870503,-0.00001335,-0.05293901,-0.10239687,0.00000530,0.00019555,-
 0.00015893,0.00000186,-0.00010127,-0.00022026,0.00000058,0.01379842,0.
 74163061,0.00000745,-0.00000476,0.00021646,-0.00000797,-0.00000512,0.0
 0003439,0.00001948,-0.00000050,-0.00390611,0.00001692,0.00002216,0.006
 78522,-0.00000916,-0.00000567,0.00413529,0.00000006,0.00000909,0.00009
 170,0.00000064,0.00000074,0.00719871,0.00000001,0.00000009,-0.00001382
 ,0.,0.00000004,-0.00008349,-0.00002078,-0.00002816,0.00764814,0.000075
 63,-0.00001494,-0.06743212,0.00000011,-0.00000006,-0.00010242,-0.00000
 001,0.00000010,-0.00046013,-0.00018049,0.00007428,0.14864907,0.0005280
 9,-0.00104930,-0.00000009,-0.00450628,0.00048990,0.00000172,-0.0533001
 5,-0.04498883,0.00000718,-0.00193542,0.00269362,0.00000024,-0.00183700
 ,-0.00102215,0.00000011,-0.00002022,0.00146310,0.00000046,0.00801295,0
 .00799439,-0.00000121,-0.00021143,-0.00000551,-0.00000018,-0.00005596,
 0.00023602,-0.00000004,-0.19119886,-0.20851294,-0.00000117,-0.06211872
 ,0.04162253,0.00002426,0.00001954,0.00002029,0.00000016,0.00009718,0.0
 0001813,0.00000010,-0.16230333,0.16526710,0.00005749,0.77743533,-0.030
 15787,0.01801199,0.00000496,0.03360562,0.02307512,-0.00000068,-0.11993
 988,-0.01337853,0.00001854,-0.03740798,-0.06864492,-0.00000453,0.03225
 072,0.01641705,-0.00000352,0.00144653,-0.03382506,-0.00000593,-0.01123
 740,-0.03846961,-0.00001371,0.00011736,-0.00004905,-0.00000051,-0.0000
 1833,-0.00009246,-0.00000005,-0.10523087,-0.37958541,-0.00001034,0.122
 32780,0.03574367,-0.00001883,-0.00009089,-0.00003918,-0.00000371,-0.00
 002211,0.00009893,-0.00000112,0.06104346,-0.28905447,-0.00007039,0.049
 64497,0.80502944,0.00000367,-0.00000222,0.00009109,-0.00000146,-0.0000
 0202,0.00413615,0.00000211,0.00001090,0.00680194,0.00000220,-0.0000054
 8,-0.00391145,-0.00000298,-0.00000196,0.00003375,-0.00000018,0.0000041
 7,0.00021654,-0.00000159,-0.00000269,0.00579374,0.00000005,0.00000009,
 -0.00045981,0.,-0.00000005,-0.00010260,0.00000527,0.00000017,-0.067450
 12,0.00002765,-0.00001064,0.00763241,0.00000006,0.,-0.00008358,-0.0000
 0005,-0.00000003,-0.00001374,0.00005037,-0.00009818,-0.07219306,-0.000
 13459,0.00010988,0.14866755,-0.00006065,0.00006552,0.,0.00033459,-0.00
 025619,-0.00000011,-0.00131581,-0.00154171,0.00000072,0.00764278,-0.01
 157206,-0.00000249,0.00012743,-0.00100021,-0.00000040,-0.00005587,-0.0
 0001907,0.00000006,-0.00002836,0.00003155,-0.00000020,-0.00000498,0.00
 002551,0.00000001,-0.00006054,-0.00007777,0.00000005,0.00020252,-0.000
 13805,-0.00000012,-0.10984436,0.12040641,0.00003224,-0.00060015,-0.000
 08204,-0.00000004,0.00001142,-0.00001349,0.00000002,-0.02871977,0.0286
 1527,0.00001216,-0.00348049,-0.00088547,0.00000185,0.13668950,-0.00005
 418,0.00003868,0.00000002,0.00054125,-0.00040298,-0.00000007,-0.002317
 34,-0.00180540,-0.00000063,0.00681929,-0.03771118,-0.00000974,-0.00040
 619,-0.00046557,0.00000019,0.00023570,-0.00009328,0.00000006,0.0000702
 7,-0.00008558,0.00000007,-0.00000787,-0.00001441,-0.00000002,-0.000077
 78,-0.00012764,-0.00000001,-0.00011194,0.00030166,0.00000029,0.1211769
 5,-0.24010344,-0.00005544,-0.00064737,-0.00019064,-0.00000010,-0.00003
 944,0.00003462,-0.00000003,0.00937920,-0.00174379,-0.00000329,-0.00022
 421,0.00016229,-0.00000108,-0.13425026,0.28163876,0.00000025,-0.000000
 18,-0.00008331,-0.00000037,-0.00000033,-0.00038291,0.00000361,-0.00000
 174,0.00383558,0.00000151,-0.00000254,0.00647895,-0.00000069,0.0000001
 4,-0.00117520,0.00000007,0.00000027,-0.00010295,-0.00000003,-0.0000000
 5,-0.00098185,0.,0.,0.00005386,0.00000002,-0.00000005,0.00019490,-0.00
 000401,-0.00000180,-0.00000765,0.00002981,-0.00005768,-0.04239872,-0.0
 0000010,-0.00000007,0.00018936,-0.00000002,-0.00000002,0.00011239,0.00
 001131,-0.00000899,0.00579180,0.00000255,0.00000381,0.00720223,-0.0000
 4343,0.00006918,0.02369405,0.00009757,0.00001772,0.,-0.00004211,-0.000
 09268,-0.00000023,0.00009564,0.00014753,0.00000018,-0.00327668,0.00085
 653,0.00000299,-0.00026189,-0.00070525,-0.00000025,-0.00021132,0.00011
 755,0.,0.00025500,0.00032460,-0.00000007,-0.00000853,-0.00002229,0.000
 00003,-0.00000499,-0.00000789,0.00000001,-0.00135138,0.00175838,0.0000
 0187,-0.02888959,-0.02874468,0.00000629,0.00000647,-0.00001076,0.00000
 004,-0.00002094,-0.00003841,0.,-0.10944695,-0.12042569,0.00001993,0.00
 775886,0.01146608,0.00000168,-0.00056618,-0.00006784,-0.00000052,0.135
 71898,-0.00002116,0.00009880,0.00000003,0.00006388,-0.00003882,0.00000
 010,0.00001068,0.00025610,0.00000015,0.00031858,0.00006453,-0.00000036
 ,0.00011186,0.00017524,0.00000007,-0.00000567,-0.00004905,0.00000002,-
 0.00031306,-0.00044166,-0.00000009,-0.00002232,-0.00004173,-0.00000002
 ,0.00002560,-0.00001444,0.,0.00233714,-0.00203769,-0.00000095,-0.00955
 453,-0.00172609,0.00000256,-0.00003673,0.00003972,0.,-0.00002202,0.000
 01296,0.,-0.12087802,-0.24150741,0.00003484,-0.00721905,-0.03727911,-0
 .00000284,0.00007258,0.00048635,0.00000016,0.13483981,0.28234659,0.000
 01075,-0.00000670,-0.00001376,-0.00001088,-0.00000646,-0.00080348,0.00
 001205,0.00000640,0.00014294,0.00001348,0.00000579,0.00731074,-0.00001
 104,-0.00000593,-0.00007019,-0.00000061,0.00001279,-0.00046056,-0.0000
 0020,-0.00000027,-0.00035558,-0.00000006,0.,0.00011968,0.00000008,0.00
 000006,0.00005387,-0.00000937,-0.00000806,0.00395322,-0.00000547,0.000
 00022,0.00533321,0.00000004,0.00000001,0.00011290,0.,-0.00000005,0.000
 03229,0.00003426,0.00003173,-0.04244067,-0.00000129,0.00000316,0.00608
 290,-0.00000015,0.00000058,-0.00206323,-0.00003145,-0.00003331,0.02396
 295,-0.00004137,-0.00010103,-0.00000011,-0.00018097,0.00006797,0.,-0.0
 0023670,-0.00138876,0.00000118,0.00028291,-0.00009584,-0.00000011,-0.0
 0005015,0.00007045,-0.00000029,0.00009718,-0.00002260,-0.00000031,0.00
 023641,-0.00037717,-0.00000047,-0.00002094,-0.00002205,0.00000001,0.00
 001145,-0.00003956,0.00000002,-0.02454098,-0.01196078,0.00000399,-0.00
 012513,0.00164997,0.00000121,-0.00000468,0.00002546,0.00000001,-0.0000
 5296,0.00000251,0.,-0.02469909,0.01097125,0.00000852,-0.31288835,-0.00
 688515,0.00004590,-0.00026999,-0.00001860,0.00000004,0.00014977,0.0002
 9256,-0.00000017,0.36233493,0.00002123,-0.00022021,0.00000005,-0.00074
 963,0.00009594,0.00000008,-0.00085311,-0.00297791,-0.00000131,0.000040
 99,0.00006701,0.,-0.00008721,-0.00002880,0.00000026,0.00001814,0.00009
 929,0.00000003,-0.00051572,-0.00031389,0.00000058,-0.00003841,0.000012
 93,-0.00000001,-0.00001354,0.00003466,0.,-0.03115666,-0.00603980,0.000
 00424,0.00107099,-0.00326220,-0.00000178,-0.00000811,-0.00001484,0.,0.
 00000252,0.00000256,-0.00000002,0.02965780,-0.00481502,-0.00000841,-0.
 00642709,-0.03811223,0.00000196,0.00061899,0.00008309,-0.00000011,0.00
 058753,-0.00034324,0.,0.00783169,0.05573411,0.00000004,0.00000002,-0.0
 0046077,-0.00000014,-0.00000009,-0.00006952,0.00000223,-0.00000057,0.0
 0730933,-0.00000010,0.00000081,0.00014261,-0.00000017,0.00000017,-0.00
 080437,-0.00000003,0.00000009,-0.00001379,-0.00000022,-0.00000001,-0.0
 0205693,0.,0.,0.00003230,0.,0.,0.00011270,0.00000002,-0.00000117,0.005
 32768,0.00000023,-0.00000220,0.00395526,-0.00000001,-0.00000002,0.0000
 5380,0.00000003,-0.00000003,0.00011988,0.00001381,-0.00000670,0.006079
 40,0.00004453,0.00000518,-0.04244550,0.00000013,0.00000009,-0.00035566
 ,-0.00000034,-0.00000008,-0.00089560,-0.00006002,0.00000450,0.02397083
 \\0.00028339,0.00008441,-0.00001274,-0.00029589,-0.00000984,0.00002644
 ,0.00027207,0.00020338,-0.00001556,-0.00065246,-0.00016015,0.00000225,
 0.00015788,0.00053609,0.00002428,-0.00006039,-0.00037154,-0.00001713,0
 .00006455,0.00002753,0.00001305,0.00000334,0.00001554,0.00000251,0.000
 00482,-0.00000359,-0.00000504,0.00004772,-0.00009482,-0.00001718,0.000
 19952,-0.00014145,-0.00000044,0.00000914,-0.00002486,-0.00000934,0.000
 00683,0.00000565,0.00000497,-0.00011612,0.00001998,0.00003334,0.000080
 98,-0.00009229,-0.00001811,0.00000545,0.00000042,-0.00000242,-0.000008
 17,-0.00001824,-0.00001244,-0.00000267,0.00002377,0.00000356\\\@


 ALL SCIENCE IS EITHER PHYSICS, OR STAMP COLLECTING.
   --ERNEST RUTHERFORD, 1871-1937.
 Job cpu time:  0 days  0 hours  0 minutes  5.9 seconds.
 File lengths (MBytes):  RWF=     11 Int=      0 D2E=      0 Chk=      4 Scr=      1
 Normal termination of Gaussian 03 at Sat Aug 30 00:59:53 2014.
