 Entering Gaussian System, Link 0=/mit/gaussian_v03-D01/distrib/i386_rhel4/g03/g03.real
 Input=/afs/athena.mit.edu/user/d/t/dtw/Desktop/LearnToGaussianFiles/Naph4.com
 Output=/afs/athena.mit.edu/user/d/t/dtw/Desktop/LearnToGaussianFiles/Naph4.log
 Initial command:
 /mit/gaussian_v03-D01/distrib/amd64_ubuntu1204/g03/l1.exe /var/tmp/Gau-61554.inp -scrdir=/var/tmp/
 Entering Link 1 = /mit/gaussian_v03-D01/distrib/amd64_ubuntu1204/g03/l1.exe PID=     61556.
  
 Copyright (c) 1988,1990,1992,1993,1995,1998,2003,2004, Gaussian, Inc.
                  All Rights Reserved.
  
 This is the Gaussian(R) 03 program.  It is based on the
 the Gaussian(R) 98 system (copyright 1998, Gaussian, Inc.),
 the Gaussian(R) 94 system (copyright 1995, Gaussian, Inc.),
 the Gaussian 92(TM) system (copyright 1992, Gaussian, Inc.),
 the Gaussian 90(TM) system (copyright 1990, Gaussian, Inc.),
 the Gaussian 88(TM) system (copyright 1988, Gaussian, Inc.),
 the Gaussian 86(TM) system (copyright 1986, Carnegie Mellon
 University), and the Gaussian 82(TM) system (copyright 1983,
 Carnegie Mellon University). Gaussian is a federally registered
 trademark of Gaussian, Inc.
  
 This software contains proprietary and confidential information,
 including trade secrets, belonging to Gaussian, Inc.
  
 This software is provided under written license and may be
 used, copied, transmitted, or stored only in accord with that
 written license.
  
 The following legend is applicable only to US Government
 contracts under FAR:
  
                    RESTRICTED RIGHTS LEGEND
  
 Use, reproduction and disclosure by the US Government is
 subject to restrictions as set forth in subparagraphs (a)
 and (c) of the Commercial Computer Software - Restricted
 Rights clause in FAR 52.227-19.
  
 Gaussian, Inc.
 340 Quinnipiac St., Bldg. 40, Wallingford CT 06492
  
  
 ---------------------------------------------------------------
 Warning -- This program may not be used in any manner that
 competes with the business of Gaussian, Inc. or will provide
 assistance to any competitor of Gaussian, Inc.  The licensee
 of this program is prohibited from giving any competitor of
 Gaussian, Inc. access to this program.  By using this program,
 the user acknowledges that Gaussian, Inc. is engaged in the
 business of creating and licensing software in the field of
 computational chemistry and represents and warrants to the
 licensee that it is not a competitor of Gaussian, Inc. and that
 it will not use this program in any manner prohibited above.
 ---------------------------------------------------------------
  

 Cite this work as:
 Gaussian 03, Revision D.01,
 M. J. Frisch, G. W. Trucks, H. B. Schlegel, G. E. Scuseria, 
 M. A. Robb, J. R. Cheeseman, J. A. Montgomery, Jr., T. Vreven, 
 K. N. Kudin, J. C. Burant, J. M. Millam, S. S. Iyengar, J. Tomasi, 
 V. Barone, B. Mennucci, M. Cossi, G. Scalmani, N. Rega, 
 G. A. Petersson, H. Nakatsuji, M. Hada, M. Ehara, K. Toyota, 
 R. Fukuda, J. Hasegawa, M. Ishida, T. Nakajima, Y. Honda, O. Kitao, 
 H. Nakai, M. Klene, X. Li, J. E. Knox, H. P. Hratchian, J. B. Cross, 
 V. Bakken, C. Adamo, J. Jaramillo, R. Gomperts, R. E. Stratmann, 
 O. Yazyev, A. J. Austin, R. Cammi, C. Pomelli, J. W. Ochterski, 
 P. Y. Ayala, K. Morokuma, G. A. Voth, P. Salvador, J. J. Dannenberg, 
 V. G. Zakrzewski, S. Dapprich, A. D. Daniels, M. C. Strain, 
 O. Farkas, D. K. Malick, A. D. Rabuck, K. Raghavachari, 
 J. B. Foresman, J. V. Ortiz, Q. Cui, A. G. Baboul, S. Clifford, 
 J. Cioslowski, B. B. Stefanov, G. Liu, A. Liashenko, P. Piskorz, 
 I. Komaromi, R. L. Martin, D. J. Fox, T. Keith, M. A. Al-Laham, 
 C. Y. Peng, A. Nanayakkara, M. Challacombe, P. M. W. Gill, 
 B. Johnson, W. Chen, M. W. Wong, C. Gonzalez, and J. A. Pople, 
 Gaussian, Inc., Wallingford CT, 2004.
 
 ******************************************
 Gaussian 03:  IA32L-G03RevD.01 13-Oct-2005
                31-Aug-2014 
 ******************************************
 %chk=Naph4.chk
 ----------------------------------------------------------------------
 # freq=noraman b3lyp/6-311++g(d,p) scrf=check guess=read genchk geom=a
 llcheck
 ----------------------------------------------------------------------
 1/10=4,29=7,30=1,38=1,40=1,46=1/1,3;
 2/40=1/2;
 3/5=4,6=6,7=1111,11=2,16=1,25=1,30=1,70=2,71=2,74=-5/1,2,3;
 4/5=1/1;
 5/5=2,38=6/2;
 8/6=4,10=90,11=11/1;
 11/6=1,8=1,9=11,15=111,16=1/1,2,10;
 10/6=1/2;
 6/7=2,8=2,9=2,10=2,18=1,28=1/1;
 7/8=1,10=1,25=1/1,2,3,16;
 1/10=4,30=1,46=1/3;
 99//99;
 -------------------
 Title Card Required
 -------------------
 Redundant internal coordinates taken from checkpoint file:
 Naph4.chk
 Charge =  0 Multiplicity = 1
 C,0,-5.3992690653,-1.2767416142,0.0003295549
 C,0,-4.0409283408,-1.2744148473,0.0001634584
 C,0,-3.3161521595,-0.0528541403,0.0002375746
 C,0,-4.0283017784,1.1633498883,0.0005152465
 C,0,-5.4482787034,1.1290492416,0.0006974118
 C,0,-6.1150096149,-0.0544052688,0.0006002376
 H,0,-1.3543420982,-0.9483637822,-0.0001526243
 H,0,-5.9392321483,-2.2067608406,0.0002603137
 H,0,-3.4951970176,-2.2019302582,-0.0000457008
 C,0,-1.896142431,-0.0185459195,0.00005259
 C,0,-3.3034966273,2.3849317462,0.0006053954
 H,0,-5.9901010729,2.0588537609,0.0009050874
 H,0,-7.1902981686,-0.0701999967,0.0007371342
 C,0,-1.9451803842,2.3872529838,0.0004316043
 C,0,-1.2294235183,1.1648887548,0.0001418794
 H,0,-3.8492371298,3.3124411223,0.0008095211
 H,0,-1.4051993181,3.3172622831,0.0004976999
 H,0,-0.1541357235,1.1807063469,0.0000036159
 Recover connectivity data from disk.

 GradGradGradGradGradGradGradGradGradGradGradGradGradGradGradGradGradGrad
 Berny optimization.
 Initialization pass.
                           ----------------------------
                           !    Initial Parameters    !
                           ! (Angstroms and Degrees)  !
 --------------------------                            --------------------------
 ! Name  Definition              Value          Derivative Info.                !
 --------------------------------------------------------------------------------
 ! R1    R(1,2)                  1.3583         calculate D2E/DX2 analytically  !
 ! R2    R(1,6)                  1.4165         calculate D2E/DX2 analytically  !
 ! R3    R(1,8)                  1.0754         calculate D2E/DX2 analytically  !
 ! R4    R(2,3)                  1.4204         calculate D2E/DX2 analytically  !
 ! R5    R(2,9)                  1.0762         calculate D2E/DX2 analytically  !
 ! R6    R(3,4)                  1.4094         calculate D2E/DX2 analytically  !
 ! R7    R(3,10)                 1.4204         calculate D2E/DX2 analytically  !
 ! R8    R(4,5)                  1.4204         calculate D2E/DX2 analytically  !
 ! R9    R(4,11)                 1.4204         calculate D2E/DX2 analytically  !
 ! R10   R(5,6)                  1.3583         calculate D2E/DX2 analytically  !
 ! R11   R(5,12)                 1.0762         calculate D2E/DX2 analytically  !
 ! R12   R(6,13)                 1.0754         calculate D2E/DX2 analytically  !
 ! R13   R(7,10)                 1.0762         calculate D2E/DX2 analytically  !
 ! R14   R(10,15)                1.3583         calculate D2E/DX2 analytically  !
 ! R15   R(11,14)                1.3583         calculate D2E/DX2 analytically  !
 ! R16   R(11,16)                1.0762         calculate D2E/DX2 analytically  !
 ! R17   R(14,15)                1.4165         calculate D2E/DX2 analytically  !
 ! R18   R(14,17)                1.0754         calculate D2E/DX2 analytically  !
 ! R19   R(15,18)                1.0754         calculate D2E/DX2 analytically  !
 ! A1    A(2,1,6)              120.253          calculate D2E/DX2 analytically  !
 ! A2    A(2,1,8)              120.2373         calculate D2E/DX2 analytically  !
 ! A3    A(6,1,8)              119.5097         calculate D2E/DX2 analytically  !
 ! A4    A(1,2,3)              120.7796         calculate D2E/DX2 analytically  !
 ! A5    A(1,2,9)              120.3736         calculate D2E/DX2 analytically  !
 ! A6    A(3,2,9)              118.8468         calculate D2E/DX2 analytically  !
 ! A7    A(2,3,4)              118.9674         calculate D2E/DX2 analytically  !
 ! A8    A(2,3,10)             122.0655         calculate D2E/DX2 analytically  !
 ! A9    A(4,3,10)             118.9671         calculate D2E/DX2 analytically  !
 ! A10   A(3,4,5)              118.9674         calculate D2E/DX2 analytically  !
 ! A11   A(3,4,11)             118.9668         calculate D2E/DX2 analytically  !
 ! A12   A(5,4,11)             122.0658         calculate D2E/DX2 analytically  !
 ! A13   A(4,5,6)              120.7797         calculate D2E/DX2 analytically  !
 ! A14   A(4,5,12)             118.8468         calculate D2E/DX2 analytically  !
 ! A15   A(6,5,12)             120.3736         calculate D2E/DX2 analytically  !
 ! A16   A(1,6,5)              120.2529         calculate D2E/DX2 analytically  !
 ! A17   A(1,6,13)             119.5096         calculate D2E/DX2 analytically  !
 ! A18   A(5,6,13)             120.2375         calculate D2E/DX2 analytically  !
 ! A19   A(3,10,7)             118.8451         calculate D2E/DX2 analytically  !
 ! A20   A(3,10,15)            120.7799         calculate D2E/DX2 analytically  !
 ! A21   A(7,10,15)            120.375          calculate D2E/DX2 analytically  !
 ! A22   A(4,11,14)            120.78           calculate D2E/DX2 analytically  !
 ! A23   A(4,11,16)            118.8457         calculate D2E/DX2 analytically  !
 ! A24   A(14,11,16)           120.3744         calculate D2E/DX2 analytically  !
 ! A25   A(11,14,15)           120.2532         calculate D2E/DX2 analytically  !
 ! A26   A(11,14,17)           120.2382         calculate D2E/DX2 analytically  !
 ! A27   A(15,14,17)           119.5086         calculate D2E/DX2 analytically  !
 ! A28   A(10,15,14)           120.253          calculate D2E/DX2 analytically  !
 ! A29   A(10,15,18)           120.2386         calculate D2E/DX2 analytically  !
 ! A30   A(14,15,18)           119.5084         calculate D2E/DX2 analytically  !
 ! D1    D(6,1,2,3)             -0.0009         calculate D2E/DX2 analytically  !
 ! D2    D(6,1,2,9)           -179.9998         calculate D2E/DX2 analytically  !
 ! D3    D(8,1,2,3)            179.9993         calculate D2E/DX2 analytically  !
 ! D4    D(8,1,2,9)              0.0004         calculate D2E/DX2 analytically  !
 ! D5    D(2,1,6,5)             -0.0001         calculate D2E/DX2 analytically  !
 ! D6    D(2,1,6,13)          -179.9995         calculate D2E/DX2 analytically  !
 ! D7    D(8,1,6,5)            179.9997         calculate D2E/DX2 analytically  !
 ! D8    D(8,1,6,13)             0.0002         calculate D2E/DX2 analytically  !
 ! D9    D(1,2,3,4)              0.0013         calculate D2E/DX2 analytically  !
 ! D10   D(1,2,3,10)          -179.9993         calculate D2E/DX2 analytically  !
 ! D11   D(9,2,3,4)           -179.9998         calculate D2E/DX2 analytically  !
 ! D12   D(9,2,3,10)            -0.0004         calculate D2E/DX2 analytically  !
 ! D13   D(2,3,4,5)             -0.0007         calculate D2E/DX2 analytically  !
 ! D14   D(2,3,4,11)           179.9993         calculate D2E/DX2 analytically  !
 ! D15   D(10,3,4,5)           179.9999         calculate D2E/DX2 analytically  !
 ! D16   D(10,3,4,11)           -0.0002         calculate D2E/DX2 analytically  !
 ! D17   D(2,3,10,7)             0.0002         calculate D2E/DX2 analytically  !
 ! D18   D(2,3,10,15)         -179.9994         calculate D2E/DX2 analytically  !
 ! D19   D(4,3,10,7)           179.9996         calculate D2E/DX2 analytically  !
 ! D20   D(4,3,10,15)            0.0001         calculate D2E/DX2 analytically  !
 ! D21   D(3,4,5,6)             -0.0003         calculate D2E/DX2 analytically  !
 ! D22   D(3,4,5,12)          -179.9997         calculate D2E/DX2 analytically  !
 ! D23   D(11,4,5,6)           179.9997         calculate D2E/DX2 analytically  !
 ! D24   D(11,4,5,12)            0.0003         calculate D2E/DX2 analytically  !
 ! D25   D(3,4,11,14)           -0.0002         calculate D2E/DX2 analytically  !
 ! D26   D(3,4,11,16)          179.9995         calculate D2E/DX2 analytically  !
 ! D27   D(5,4,11,14)          179.9997         calculate D2E/DX2 analytically  !
 ! D28   D(5,4,11,16)           -0.0005         calculate D2E/DX2 analytically  !
 ! D29   D(4,5,6,1)              0.0007         calculate D2E/DX2 analytically  !
 ! D30   D(4,5,6,13)          -179.9998         calculate D2E/DX2 analytically  !
 ! D31   D(12,5,6,1)          -179.9999         calculate D2E/DX2 analytically  !
 ! D32   D(12,5,6,13)           -0.0004         calculate D2E/DX2 analytically  !
 ! D33   D(3,10,15,14)           0.0004         calculate D2E/DX2 analytically  !
 ! D34   D(3,10,15,18)         179.9998         calculate D2E/DX2 analytically  !
 ! D35   D(7,10,15,14)        -179.9991         calculate D2E/DX2 analytically  !
 ! D36   D(7,10,15,18)           0.0003         calculate D2E/DX2 analytically  !
 ! D37   D(4,11,14,15)           0.0007         calculate D2E/DX2 analytically  !
 ! D38   D(4,11,14,17)         179.9998         calculate D2E/DX2 analytically  !
 ! D39   D(16,11,14,15)       -179.999          calculate D2E/DX2 analytically  !
 ! D40   D(16,11,14,17)          0.0            calculate D2E/DX2 analytically  !
 ! D41   D(11,14,15,10)         -0.0008         calculate D2E/DX2 analytically  !
 ! D42   D(11,14,15,18)        179.9998         calculate D2E/DX2 analytically  !
 ! D43   D(17,14,15,10)       -179.9999         calculate D2E/DX2 analytically  !
 ! D44   D(17,14,15,18)          0.0008         calculate D2E/DX2 analytically  !
 --------------------------------------------------------------------------------
 Trust Radius=3.00D-01 FncErr=1.00D-07 GrdErr=1.00D-07
 Number of steps in this run=   2 maximum allowed number of steps=   2.
 GradGradGradGradGradGradGradGradGradGradGradGradGradGradGradGradGradGrad

                          Input orientation:                          
 ---------------------------------------------------------------------
 Center     Atomic     Atomic              Coordinates (Angstroms)
 Number     Number      Type              X           Y           Z
 ---------------------------------------------------------------------
    1          6             0       -5.399269   -1.276742    0.000330
    2          6             0       -4.040928   -1.274415    0.000163
    3          6             0       -3.316152   -0.052854    0.000238
    4          6             0       -4.028302    1.163350    0.000515
    5          6             0       -5.448279    1.129049    0.000697
    6          6             0       -6.115010   -0.054405    0.000600
    7          1             0       -1.354342   -0.948364   -0.000153
    8          1             0       -5.939232   -2.206761    0.000260
    9          1             0       -3.495197   -2.201930   -0.000046
   10          6             0       -1.896142   -0.018546    0.000053
   11          6             0       -3.303497    2.384932    0.000605
   12          1             0       -5.990101    2.058854    0.000905
   13          1             0       -7.190298   -0.070200    0.000737
   14          6             0       -1.945180    2.387253    0.000432
   15          6             0       -1.229424    1.164889    0.000142
   16          1             0       -3.849237    3.312441    0.000810
   17          1             0       -1.405199    3.317262    0.000498
   18          1             0       -0.154136    1.180706    0.000004
 ---------------------------------------------------------------------
                    Distance matrix (angstroms):
                    1          2          3          4          5
     1  C    0.000000
     2  C    1.358343   0.000000
     3  C    2.416046   1.420391   0.000000
     4  C    2.798857   2.437797   1.409365   0.000000
     5  C    2.406290   2.785188   2.437798   1.420391   0.000000
     6  C    1.416471   2.406291   2.798858   2.416046   1.358343
     7  H    4.058234   2.706299   2.156533   3.407256   4.590856
     8  H    1.075405   2.114906   3.394092   3.874184   3.371745
     9  H    2.116947   1.076154   2.156522   3.407244   3.861341
    10  C    3.722224   2.485420   1.420424   2.437823   3.732914
    11  C    4.219018   3.732911   2.437819   1.420424   2.485424
    12  H    3.387518   3.861341   3.407244   2.156521   1.076154
    13  H    2.159520   3.371745   3.874185   3.394093   2.114907
    14  C    5.035433   4.219001   2.798872   2.416057   3.722200
    15  C    4.832098   3.722198   2.416058   2.798879   4.219007
    16  H    4.843882   4.590860   3.407256   2.156538   2.706314
    17  H    6.087484   5.294390   3.874200   3.394113   4.597256
    18  H    5.792277   4.597258   3.394115   3.874205   5.294395
                    6          7          8          9         10
     6  C    0.000000
     7  H    4.843874   0.000000
     8  H    2.159521   4.754448   0.000000
     9  H    3.387519   2.480865   2.444040   0.000000
    10  C    4.219020   1.076155   4.597266   2.706315   0.000000
    11  C    3.722227   3.861355   5.294407   4.590866   2.785202
    12  H    2.116947   5.525723   4.265918   4.937492   4.590870
    13  H    1.075405   5.901657   2.475896   4.265917   5.294408
    14  C    4.832098   3.387540   6.087480   4.843878   2.406299
    15  C    5.035437   2.116941   5.792264   4.058226   1.358319
    16  H    4.058248   4.937506   5.901667   5.525725   3.861354
    17  H    5.792275   4.265929   7.146488   5.901659   3.371742
    18  H    6.087489   2.444061   6.703900   4.754463   2.114898
                   11         12         13         14         15
    11  C    0.000000
    12  H    2.706320   0.000000
    13  H    4.597271   2.444042   0.000000
    14  C    1.358318   4.058230   5.792265   0.000000
    15  C    2.406301   4.843885   6.087485   1.416504   0.000000
    16  H    1.076154   2.480883   4.754466   2.116933   3.387537
    17  H    2.114893   4.754463   6.703900   1.075405   2.159539
    18  H    3.371740   5.901664   7.146492   2.159536   1.075404
                   16         17         18
    16  H    0.000000
    17  H    2.444043   0.000000
    18  H    4.265919   2.475890   0.000000
 Stoichiometry    C10H8
 Framework group  C1[X(C10H8)]
 Deg. of freedom    48
 Full point group                 C1
 Largest Abelian subgroup         C1      NOp   1
 Largest concise Abelian subgroup C1      NOp   1
                         Standard orientation:                         
 ---------------------------------------------------------------------
 Center     Atomic     Atomic              Coordinates (Angstroms)
 Number     Number      Type              X           Y           Z
 ---------------------------------------------------------------------
    1          6             0       -2.416051    0.708237    0.000001
    2          6             0       -1.242701    1.392594   -0.000011
    3          6             0       -0.000008    0.704681    0.000002
    4          6             0       -0.000010   -0.704684    0.000000
    5          6             0       -1.242705   -1.392594   -0.000001
    6          6             0       -2.416054   -0.708234    0.000006
    7          1             0        1.240429    2.468753    0.000001
    8          1             0       -3.351945    1.237951    0.000002
    9          1             0       -1.240435    2.468746   -0.000012
   10          6             0        1.242719    1.392601    0.000006
   11          6             0        1.242718   -1.392601   -0.000003
   12          1             0       -1.240441   -2.468746    0.000001
   13          1             0       -3.351950   -1.237944    0.000008
   14          6             0        2.416044   -0.708251   -0.000007
   15          6             0        2.416047    0.708252    0.000006
   16          1             0        1.240442   -2.468752    0.000003
   17          1             0        3.351949   -1.237948   -0.000005
   18          1             0        3.351954    1.237942    0.000006
 ---------------------------------------------------------------------
 Rotational constants (GHZ):      3.1619680      1.2453441      0.8934557
 Standard basis: 6-311++G(d,p) (5D, 7F)
 There are   276 symmetry adapted basis functions of A   symmetry.
 Integral buffers will be    262144 words long.
 Raffenetti 2 integral format.
 Two-electron integral symmetry is turned on.
   276 basis functions,   432 primitive gaussians,   286 cartesian basis functions
    34 alpha electrons       34 beta electrons
       nuclear repulsion energy       460.3758292510 Hartrees.
 NAtoms=   18 NActive=   18 NUniq=   18 SFac= 7.50D-01 NAtFMM=   80 NAOKFM=F Big=F
 One-electron integrals computed using PRISM.
 NBasis=   276 RedAO= T  NBF=   276
 NBsUse=   274 1.00D-06 NBFU=   274
 Initial guess read from the checkpoint file:
 Naph4.chk
 Initial guess orbital symmetries:
       Occupied  (A) (A) (A) (A) (A) (A) (A) (A) (A) (A) (A) (A)
                 (A) (A) (A) (A) (A) (A) (A) (A) (A) (A) (A) (A)
                 (A) (A) (A) (A) (A) (A) (A) (A) (A) (A)
       Virtual   (A) (A) (A) (A) (A) (A) (A) (A) (A) (A) (A) (A)
                 (A) (A) (A) (A) (A) (A) (A) (A) (A) (A) (A) (A)
                 (A) (A) (A) (A) (A) (A) (A) (A) (A) (A) (A) (A)
                 (A) (A) (A) (A) (A) (A) (A) (A) (A) (A) (A) (A)
                 (A) (A) (A) (A) (A) (A) (A) (A) (A) (A) (A) (A)
                 (A) (A) (A) (A) (A) (A) (A) (A) (A) (A) (A) (A)
                 (A) (A) (A) (A) (A) (A) (A) (A) (A) (A) (A) (A)
                 (A) (A) (A) (A) (A) (A) (A) (A) (A) (A) (A) (A)
                 (A) (A) (A) (A) (A) (A) (A) (A) (A) (A) (A) (A)
                 (A) (A) (A) (A) (A) (A) (A) (A) (A) (A) (A) (A)
                 (A) (A) (A) (A) (A) (A) (A) (A) (A) (A) (A) (A)
                 (A) (A) (A) (A) (A) (A) (A) (A) (A) (A) (A) (A)
                 (A) (A) (A) (A) (A) (A) (A) (A) (A) (A) (A) (A)
                 (A) (A) (A) (A) (A) (A) (A) (A) (A) (A) (A) (A)
                 (A) (A) (A) (A) (A) (A) (A) (A) (A) (A) (A) (A)
                 (A) (A) (A) (A) (A) (A) (A) (A) (A) (A) (A) (A)
                 (A) (A) (A) (A) (A) (A) (A) (A) (A) (A) (A) (A)
                 (A) (A) (A) (A) (A) (A) (A) (A) (A) (A) (A) (A)
                 (A) (A) (A) (A) (A) (A) (A) (A) (A) (A) (A) (A)
                 (A) (A) (A) (A) (A) (A) (A) (A) (A) (A) (A) (A)
 Requested convergence on RMS density matrix=1.00D-08 within 128 cycles.
 Requested convergence on MAX density matrix=1.00D-06.
 Requested convergence on             energy=1.00D-06.
 No special actions if energy rises.
 SCF Done:  E(RB+HF-LYP) =  -385.987395985     A.U. after   11 cycles
             Convg  =    0.5981D-08             -V/T =  2.0038
             S**2   =   0.0000
 Range of M.O.s used for correlation:     1   274
 NBasis=   276 NAE=    34 NBE=    34 NFC=     0 NFV=     0
 NROrb=    274 NOA=    34 NOB=    34 NVA=   240 NVB=   240

 **** Warning!!: The largest alpha MO coefficient is  0.19787231D+03

 Symmetrizing basis deriv contribution to polar:
 IMax=3 JMax=2 DiffMx= 0.00D+00
 G2DrvN: will do   10 centers at a time, making    2 passes doing MaxLOS=2.
 FoFDir/FoFCou used for L=0 through L=2.
 DoAtom=TTTTTTTTTTTTTTTTTT
          Differentiating once with respect to electric field.
                with respect to dipole field.
          Differentiating once with respect to nuclear coordinates.
 Integrals replicated using symmetry in FoFDir.
 MinBra= 0 MaxBra= 2 Meth= 1.
 IRaf=       0 NMat=  57 IRICut=      57 DoRegI=T DoRafI=T ISym2E= 2 JSym2E=2.
 CalDSu would require      166642 more words of memory to run efficiently.
 CalDSu:  MaxMB=  37 is small; additional memory will improve performance.
          There are  57 degrees of freedom in the 1st order CPHF.
    56 vectors were produced by pass  0.
 AX will form  56 AO Fock derivatives at one time.
 CalDSu would require       83174 more words of memory to run efficiently.
 CalDSu:  MaxMB=  44 is small; additional memory will improve performance.
    54 vectors were produced by pass  1.
    54 vectors were produced by pass  2.
    54 vectors were produced by pass  3.
    54 vectors were produced by pass  4.
    52 vectors were produced by pass  5.
    26 vectors were produced by pass  6.
    25 vectors were produced by pass  7.
    22 vectors were produced by pass  8.
    11 vectors were produced by pass  9.
     5 vectors were produced by pass 10.
     4 vectors were produced by pass 11.
     3 vectors were produced by pass 12.
     1 vectors were produced by pass 13.
 Inv2:  IOpt= 1 Iter= 1 AM= 4.24D-11 Conv= 1.00D-12.
 Inv2:  IOpt= 1 Iter= 2 AM= 7.58D-24 Conv= 1.00D-12.
 Inverted reduced A of dimension  421 with in-core refinement.
 CalDSu would require      178545 more words of memory to run efficiently.
 CalDSu:  MaxMB=  36 is small; additional memory will improve performance.
 Isotropic polarizability for W=    0.000000      114.24 Bohr**3.
 End of Minotr Frequency-dependent properties file   721 does not exist.

 **********************************************************************

            Population analysis using the SCF density.

 **********************************************************************

 Orbital symmetries:
       Occupied  (A) (A) (A) (A) (A) (A) (A) (A) (A) (A) (A) (A)
                 (A) (A) (A) (A) (A) (A) (A) (A) (A) (A) (A) (A)
                 (A) (A) (A) (A) (A) (A) (A) (A) (A) (A)
       Virtual   (A) (A) (A) (A) (A) (A) (A) (A) (A) (A) (A) (A)
                 (A) (A) (A) (A) (A) (A) (A) (A) (A) (A) (A) (A)
                 (A) (A) (A) (A) (A) (A) (A) (A) (A) (A) (A) (A)
                 (A) (A) (A) (A) (A) (A) (A) (A) (A) (A) (A) (A)
                 (A) (A) (A) (A) (A) (A) (A) (A) (A) (A) (A) (A)
                 (A) (A) (A) (A) (A) (A) (A) (A) (A) (A) (A) (A)
                 (A) (A) (A) (A) (A) (A) (A) (A) (A) (A) (A) (A)
                 (A) (A) (A) (A) (A) (A) (A) (A) (A) (A) (A) (A)
                 (A) (A) (A) (A) (A) (A) (A) (A) (A) (A) (A) (A)
                 (A) (A) (A) (A) (A) (A) (A) (A) (A) (A) (A) (A)
                 (A) (A) (A) (A) (A) (A) (A) (A) (A) (A) (A) (A)
                 (A) (A) (A) (A) (A) (A) (A) (A) (A) (A) (A) (A)
                 (A) (A) (A) (A) (A) (A) (A) (A) (A) (A) (A) (A)
                 (A) (A) (A) (A) (A) (A) (A) (A) (A) (A) (A) (A)
                 (A) (A) (A) (A) (A) (A) (A) (A) (A) (A) (A) (A)
                 (A) (A) (A) (A) (A) (A) (A) (A) (A) (A) (A) (A)
                 (A) (A) (A) (A) (A) (A) (A) (A) (A) (A) (A) (A)
                 (A) (A) (A) (A) (A) (A) (A) (A) (A) (A) (A) (A)
                 (A) (A) (A) (A) (A) (A) (A) (A) (A) (A) (A) (A)
                 (A) (A) (A) (A) (A) (A) (A) (A) (A) (A) (A) (A)
 The electronic state is 1-A.
 Alpha  occ. eigenvalues --  -10.18597 -10.18548 -10.17700 -10.17698 -10.17688
 Alpha  occ. eigenvalues --  -10.17686 -10.17628 -10.17628 -10.17595 -10.17595
 Alpha  occ. eigenvalues --   -0.88510  -0.83198  -0.78165  -0.74923  -0.72990
 Alpha  occ. eigenvalues --   -0.63217  -0.62029  -0.60620  -0.52571  -0.51672
 Alpha  occ. eigenvalues --   -0.50373  -0.45525  -0.45092  -0.42654  -0.42595
 Alpha  occ. eigenvalues --   -0.40993  -0.40069  -0.37562  -0.34652  -0.33875
 Alpha  occ. eigenvalues --   -0.33783  -0.29398  -0.25345  -0.22795
 Alpha virt. eigenvalues --   -0.04752  -0.02165  -0.00707   0.00279   0.00504
 Alpha virt. eigenvalues --    0.00613   0.02385   0.02427   0.04619   0.04924
 Alpha virt. eigenvalues --    0.05304   0.05614   0.06881   0.07912   0.07934
 Alpha virt. eigenvalues --    0.07964   0.09073   0.09667   0.10318   0.11053
 Alpha virt. eigenvalues --    0.11446   0.11819   0.12034   0.12403   0.12451
 Alpha virt. eigenvalues --    0.12722   0.12747   0.13690   0.14166   0.14710
 Alpha virt. eigenvalues --    0.15732   0.16310   0.16384   0.16477   0.16699
 Alpha virt. eigenvalues --    0.17988   0.20201   0.20420   0.20485   0.21050
 Alpha virt. eigenvalues --    0.21640   0.21836   0.23339   0.23488   0.23536
 Alpha virt. eigenvalues --    0.24563   0.24606   0.25653   0.27106   0.27654
 Alpha virt. eigenvalues --    0.27951   0.28279   0.28870   0.28949   0.29619
 Alpha virt. eigenvalues --    0.30231   0.30269   0.31408   0.32525   0.33447
 Alpha virt. eigenvalues --    0.34533   0.36204   0.36729   0.38675   0.38827
 Alpha virt. eigenvalues --    0.40902   0.48744   0.49674   0.49753   0.52379
 Alpha virt. eigenvalues --    0.53167   0.54397   0.55535   0.55716   0.56237
 Alpha virt. eigenvalues --    0.56732   0.57181   0.58277   0.58569   0.59047
 Alpha virt. eigenvalues --    0.59381   0.60849   0.61787   0.62762   0.62882
 Alpha virt. eigenvalues --    0.64160   0.66553   0.66989   0.69579   0.71736
 Alpha virt. eigenvalues --    0.73242   0.73432   0.73483   0.74709   0.76017
 Alpha virt. eigenvalues --    0.79078   0.79846   0.81632   0.82131   0.83827
 Alpha virt. eigenvalues --    0.83881   0.86874   0.87159   0.88565   0.89265
 Alpha virt. eigenvalues --    0.89876   0.91941   0.92869   0.93551   0.93605
 Alpha virt. eigenvalues --    0.93776   0.97942   0.98856   0.99918   1.02984
 Alpha virt. eigenvalues --    1.05492   1.06314   1.06333   1.08152   1.10320
 Alpha virt. eigenvalues --    1.10556   1.12616   1.15106   1.16303   1.18098
 Alpha virt. eigenvalues --    1.33235   1.34523   1.35800   1.46639   1.49731
 Alpha virt. eigenvalues --    1.49755   1.49946   1.51362   1.52073   1.53305
 Alpha virt. eigenvalues --    1.56722   1.57293   1.59163   1.60140   1.60576
 Alpha virt. eigenvalues --    1.65105   1.65288   1.65794   1.69097   1.73980
 Alpha virt. eigenvalues --    1.74038   1.74681   1.75712   1.76674   1.77225
 Alpha virt. eigenvalues --    1.84340   1.84696   1.89187   1.90365   1.91268
 Alpha virt. eigenvalues --    1.92351   1.92810   1.94062   1.94137   1.96420
 Alpha virt. eigenvalues --    1.96872   1.97405   1.97415   2.00140   2.04637
 Alpha virt. eigenvalues --    2.09849   2.12643   2.13024   2.14126   2.20908
 Alpha virt. eigenvalues --    2.21367   2.24157   2.25728   2.39830   2.43077
 Alpha virt. eigenvalues --    2.43819   2.45300   2.48075   2.48238   2.52451
 Alpha virt. eigenvalues --    2.52591   2.58050   2.64493   2.67713   2.68567
 Alpha virt. eigenvalues --    2.68798   2.70932   2.71388   2.71877   2.72952
 Alpha virt. eigenvalues --    2.73345   2.74660   2.74671   2.76005   2.77639
 Alpha virt. eigenvalues --    2.78485   2.79756   2.81825   2.82315   2.86536
 Alpha virt. eigenvalues --    2.89795   2.90470   2.90498   2.92055   2.98812
 Alpha virt. eigenvalues --    3.02619   3.07089   3.09959   3.21431   3.22627
 Alpha virt. eigenvalues --    3.33574   3.35010   3.39488   3.41935   3.51048
 Alpha virt. eigenvalues --    3.53857   3.54120   3.58937   3.66394   3.70099
 Alpha virt. eigenvalues --    3.75707   4.05119   4.05326   4.06088   4.07353
 Alpha virt. eigenvalues --    4.18361   4.22077   4.38122   4.82756   4.85648
 Alpha virt. eigenvalues --   23.53735  23.81849  23.93655  23.95849  23.97692
 Alpha virt. eigenvalues --   24.04685  24.17887  24.18685  24.23690  24.24046
          Condensed to atoms (all electrons):
              1          2          3          4          5          6
     1  C    5.840694  -0.055386   0.002599   0.341888  -0.763067   0.517009
     2  C   -0.055386   9.010312  -2.492872  -2.085790   2.667320  -0.763068
     3  C    0.002599  -2.492872  14.440160   0.057059  -2.085784   0.341894
     4  C    0.341888  -2.085790   0.057059  14.440228  -2.492875   0.002617
     5  C   -0.763067   2.667320  -2.085784  -2.492875   9.010295  -0.055381
     6  C    0.517009  -0.763068   0.341894   0.002617  -0.055381   5.840678
     7  H    0.038909   0.005837  -0.068698  -0.036612  -0.036328   0.001950
     8  H    0.439619  -0.074317   0.034374   0.005232  -0.025520  -0.054386
     9  H   -0.095017   0.467976  -0.068709  -0.036599   0.054536   0.001925
    10  C    0.002394  -0.381505  -2.492590  -2.085405  -0.390500   0.202255
    11  C    0.202267  -0.390516  -2.085346  -2.492641  -0.381513   0.002390
    12  H    0.001925   0.054536  -0.036599  -0.068709   0.467976  -0.095016
    13  H   -0.054385  -0.025521   0.005233   0.034376  -0.074318   0.439619
    14  C    0.001063   0.202272   0.341950   0.002488   0.002416  -0.189403
    15  C   -0.189409   0.002420   0.002466   0.341971   0.202279   0.001063
    16  H    0.001950  -0.036328  -0.036613  -0.068697   0.005837   0.038909
    17  H   -0.001252  -0.009419   0.005258   0.034347   0.004529   0.002600
    18  H    0.002600   0.004529   0.034350   0.005256  -0.009420  -0.001252
              7          8          9         10         11         12
     1  C    0.038909   0.439619  -0.095017   0.002394   0.202267   0.001925
     2  C    0.005837  -0.074317   0.467976  -0.381505  -0.390516   0.054536
     3  C   -0.068698   0.034374  -0.068709  -2.492590  -2.085346  -0.036599
     4  C   -0.036612   0.005232  -0.036599  -2.085405  -2.492641  -0.068709
     5  C   -0.036328  -0.025520   0.054536  -0.390500  -0.381513   0.467976
     6  C    0.001950  -0.054386   0.001925   0.202255   0.002390  -0.095016
     7  H    0.555768   0.000571   0.003841   0.467977   0.054536   0.000125
     8  H    0.000571   0.556271  -0.020954   0.004537  -0.009423  -0.000111
     9  H    0.003841  -0.020954   0.555767   0.005829  -0.036326   0.001768
    10  C    0.467977   0.004537   0.005829   9.009978   2.667078  -0.036326
    11  C    0.054536  -0.009423  -0.036326   2.667078   9.009993   0.005829
    12  H    0.000125  -0.000111   0.001768  -0.036326   0.005829   0.555766
    13  H   -0.000374  -0.015950  -0.000111  -0.009423   0.004537  -0.020954
    14  C    0.001923  -0.001253   0.001951  -0.763076  -0.055405   0.038906
    15  C   -0.095021   0.002602   0.038907  -0.055411  -0.763083   0.001952
    16  H    0.001768  -0.000374   0.000125   0.054536   0.467978   0.003841
    17  H   -0.000111   0.000020  -0.000374  -0.025515  -0.074321   0.000571
    18  H   -0.020955  -0.000009   0.000571  -0.074320  -0.025515  -0.000374
             13         14         15         16         17         18
     1  C   -0.054385   0.001063  -0.189409   0.001950  -0.001252   0.002600
     2  C   -0.025521   0.202272   0.002420  -0.036328  -0.009419   0.004529
     3  C    0.005233   0.341950   0.002466  -0.036613   0.005258   0.034350
     4  C    0.034376   0.002488   0.341971  -0.068697   0.034347   0.005256
     5  C   -0.074318   0.002416   0.202279   0.005837   0.004529  -0.009420
     6  C    0.439619  -0.189403   0.001063   0.038909   0.002600  -0.001252
     7  H   -0.000374   0.001923  -0.095021   0.001768  -0.000111  -0.020955
     8  H   -0.015950  -0.001253   0.002602  -0.000374   0.000020  -0.000009
     9  H   -0.000111   0.001951   0.038907   0.000125  -0.000374   0.000571
    10  C   -0.009423  -0.763076  -0.055411   0.054536  -0.025515  -0.074320
    11  C    0.004537  -0.055405  -0.763083   0.467978  -0.074321  -0.025515
    12  H   -0.020954   0.038906   0.001952   0.003841   0.000571  -0.000374
    13  H    0.556270   0.002602  -0.001253   0.000571  -0.000009   0.000020
    14  C    0.002602   5.840713   0.517030  -0.095022   0.439630  -0.054392
    15  C   -0.001253   0.517030   5.840732   0.001923  -0.054393   0.439628
    16  H    0.000571  -0.095022   0.001923   0.555769  -0.020956  -0.000111
    17  H   -0.000009   0.439630  -0.054393  -0.020956   0.556272  -0.015949
    18  H    0.000020  -0.054392   0.439628  -0.000111  -0.015949   0.556271
 Mulliken atomic charges:
              1
     1  C   -0.234401
     2  C   -0.100479
     3  C    0.101870
     4  C    0.101866
     5  C   -0.100483
     6  C   -0.234403
     7  H    0.124893
     8  H    0.159071
     9  H    0.124894
    10  C   -0.100513
    11  C   -0.100519
    12  H    0.124894
    13  H    0.159071
    14  C   -0.234392
    15  C   -0.234403
    16  H    0.124893
    17  H    0.159072
    18  H    0.159072
 Sum of Mulliken charges=   0.00000
 Atomic charges with hydrogens summed into heavy atoms:
              1
     1  C   -0.075331
     2  C    0.024414
     3  C    0.101870
     4  C    0.101866
     5  C    0.024410
     6  C   -0.075332
     7  H    0.000000
     8  H    0.000000
     9  H    0.000000
    10  C    0.024379
    11  C    0.024373
    12  H    0.000000
    13  H    0.000000
    14  C   -0.075320
    15  C   -0.075331
    16  H    0.000000
    17  H    0.000000
    18  H    0.000000
 Sum of Mulliken charges=   0.00000
 APT atomic charges:
              1
     1  C   -0.043331
     2  C   -0.014277
     3  C   -0.003305
     4  C   -0.002379
     5  C   -0.014967
     6  C   -0.042801
     7  H    0.028963
     8  H    0.030738
     9  H    0.028717
    10  C   -0.016199
    11  C   -0.014803
    12  H    0.028720
    13  H    0.030594
    14  C   -0.043071
    15  C   -0.042500
    16  H    0.028345
    17  H    0.030796
    18  H    0.030761
 Sum of APT charges=   0.00000
 APT Atomic charges with hydrogens summed into heavy atoms:
              1
     1  C   -0.012593
     2  C    0.014440
     3  C   -0.003305
     4  C   -0.002379
     5  C    0.013753
     6  C   -0.012208
     7  H    0.000000
     8  H    0.000000
     9  H    0.000000
    10  C    0.012763
    11  C    0.013542
    12  H    0.000000
    13  H    0.000000
    14  C   -0.012275
    15  C   -0.011740
    16  H    0.000000
    17  H    0.000000
    18  H    0.000000
 Sum of APT charges=   0.00000
 Electronic spatial extent (au):  <R**2>=  1279.8178
 Charge=     0.0000 electrons
 Dipole moment (field-independent basis, Debye):
    X=     0.0000    Y=     0.0000    Z=     0.0000  Tot=     0.0000
 Quadrupole moment (field-independent basis, Debye-Ang):
   XX=   -52.0169   YY=   -52.1251   ZZ=   -64.3504
   XY=     0.0000   XZ=     0.0000   YZ=     0.0000
 Traceless Quadrupole moment (field-independent basis, Debye-Ang):
   XX=     4.1472   YY=     4.0391   ZZ=    -8.1863
   XY=     0.0000   XZ=     0.0000   YZ=     0.0000
 Octapole moment (field-independent basis, Debye-Ang**2):
  XXX=     0.0006  YYY=     0.0000  ZZZ=     0.0000  XYY=    -0.0004
  XXY=    -0.0001  XXZ=     0.0001  XZZ=     0.0000  YZZ=     0.0000
  YYZ=     0.0000  XYZ=     0.0000
 Hexadecapole moment (field-independent basis, Debye-Ang**3):
 XXXX= -1091.9075 YYYY=  -484.9285 ZZZZ=   -77.8474 XXXY=     0.0000
 XXXZ=    -0.0002 YYYX=    -0.0002 YYYZ=    -0.0003 ZZZX=     0.0000
 ZZZY=    -0.0001 XXYY=  -267.8061 XXZZ=  -240.6775 YYZZ=  -113.1888
 XXYZ=     0.0000 YYXZ=     0.0000 ZZXY=     0.0000
 N-N= 4.603758292510D+02 E-N=-1.816022518938D+03  KE= 3.845223514523D+02
  Exact polarizability: 163.482   0.010 118.025   0.000  -0.055  61.226
 Approx polarizability: 271.373   0.000 204.833   0.000   0.000  94.372
 Full mass-weighted force constant matrix:
 Low frequencies ---  -85.7872  -65.5182  -58.2607   -0.0019    0.0006    0.0011
 Low frequencies ---  117.5244  167.6142  350.5701
 Diagonal vibrational polarizability:
        0.7345560       0.7897442      15.6272085
 Harmonic frequencies (cm**-1), IR intensities (KM/Mole), Raman scattering
 activities (A**4/AMU), depolarization ratios for plane and unpolarized
 incident light, reduced masses (AMU), force constants (mDyne/A),
 and normal coordinates:
                     1                      2                      3
                     A                      A                      A
 Frequencies --   117.5244               167.6142               350.5701
 Red. masses --     3.9286                 3.1923                 3.7313
 Frc consts  --     0.0320                 0.0528                 0.2702
 IR Inten    --     3.1349                 0.0000                 1.4435
 Atom AN      X      Y      Z        X      Y      Z        X      Y      Z
   1   6     0.00   0.00  -0.18     0.00   0.00   0.14    -0.04  -0.14   0.00
   2   6     0.00   0.00   0.10     0.00   0.00   0.17    -0.12   0.05   0.00
   3   6     0.00   0.00   0.22     0.00   0.00   0.00     0.00   0.21   0.00
   4   6     0.00   0.00   0.22     0.00   0.00   0.00     0.00   0.21   0.00
   5   6     0.00   0.00   0.10     0.00   0.00  -0.17     0.12   0.05   0.00
   6   6     0.00   0.00  -0.18     0.00   0.00  -0.14     0.04  -0.14   0.00
   7   1     0.00   0.00   0.11     0.00   0.00  -0.33     0.34   0.05   0.00
   8   1     0.00   0.00  -0.41     0.00   0.00   0.30    -0.10  -0.24   0.00
   9   1     0.00   0.00   0.11     0.00   0.00   0.33    -0.34   0.05   0.00
  10   6     0.00   0.00   0.10     0.00   0.00  -0.17     0.12   0.05   0.00
  11   6     0.00   0.00   0.10     0.00   0.00   0.17    -0.12   0.05   0.00
  12   1     0.00   0.00   0.11     0.00   0.00  -0.33     0.34   0.05   0.00
  13   1     0.00   0.00  -0.41     0.00   0.00  -0.30     0.10  -0.24   0.00
  14   6     0.00   0.00  -0.18     0.00   0.00   0.14    -0.04  -0.14   0.00
  15   6     0.00   0.00  -0.18     0.00   0.00  -0.14     0.04  -0.14   0.00
  16   1     0.00   0.00   0.11     0.00   0.00   0.33    -0.34   0.05   0.00
  17   1     0.00   0.00  -0.41     0.00   0.00   0.30    -0.10  -0.24   0.00
  18   1     0.00   0.00  -0.41     0.00   0.00  -0.30     0.10  -0.24   0.00
                     4                      5                      6
                     A                      A                      A
 Frequencies --   370.6537               457.0554               465.6345
 Red. masses --     3.0128                 3.0332                 2.1989
 Frc consts  --     0.2439                 0.3733                 0.2809
 IR Inten    --     0.0000                 0.0001                32.1924
 Atom AN      X      Y      Z        X      Y      Z        X      Y      Z
   1   6     0.00   0.00  -0.09     0.00   0.00   0.16     0.00   0.00   0.05
   2   6     0.00   0.00   0.19     0.00   0.00  -0.07     0.00   0.00  -0.09
   3   6     0.00   0.00   0.00     0.00   0.00  -0.17     0.00   0.00   0.18
   4   6     0.00   0.00   0.00     0.00   0.00   0.17     0.00   0.00   0.18
   5   6     0.00   0.00   0.19     0.00   0.00   0.07     0.00   0.00  -0.09
   6   6     0.00   0.00  -0.09     0.00   0.00  -0.16     0.00   0.00   0.05
   7   1     0.00   0.00  -0.41     0.00   0.00   0.00     0.00   0.00  -0.46
   8   1     0.00   0.00  -0.18     0.00   0.00   0.45     0.00   0.00  -0.11
   9   1     0.00   0.00   0.41     0.00   0.00   0.00     0.00   0.00  -0.46
  10   6     0.00   0.00  -0.19     0.00   0.00  -0.07     0.00   0.00  -0.09
  11   6     0.00   0.00  -0.19     0.00   0.00   0.07     0.00   0.00  -0.09
  12   1     0.00   0.00   0.41     0.00   0.00   0.00     0.00   0.00  -0.46
  13   1     0.00   0.00  -0.18     0.00   0.00  -0.45     0.00   0.00  -0.11
  14   6     0.00   0.00   0.09     0.00   0.00  -0.16     0.00   0.00   0.05
  15   6     0.00   0.00   0.09     0.00   0.00   0.16     0.00   0.00   0.05
  16   1     0.00   0.00  -0.41     0.00   0.00   0.00     0.00   0.00  -0.46
  17   1     0.00   0.00   0.18     0.00   0.00  -0.45     0.00   0.00  -0.11
  18   1     0.00   0.00   0.18     0.00   0.00   0.45     0.00   0.00  -0.11
                     7                      8                      9
                     A                      A                      A
 Frequencies --   519.6802               521.1374               621.2092
 Red. masses --     7.0202                 6.5958                 3.1952
 Frc consts  --     1.1171                 1.0554                 0.7265
 IR Inten    --     0.0008                 0.0000                 0.0001
 Atom AN      X      Y      Z        X      Y      Z        X      Y      Z
   1   6    -0.19   0.15   0.00     0.29   0.00   0.00     0.00   0.00   0.16
   2   6    -0.20   0.14   0.00     0.17   0.12   0.00     0.00   0.00  -0.15
   3   6    -0.20   0.00   0.00     0.00   0.01   0.00     0.00   0.00   0.00
   4   6     0.20   0.00   0.00     0.00  -0.01   0.00     0.00   0.00   0.00
   5   6     0.20   0.14   0.00     0.17  -0.12   0.00     0.00   0.00   0.15
   6   6     0.19   0.15   0.00     0.29   0.00   0.00     0.00   0.00  -0.16
   7   1    -0.06  -0.14   0.00    -0.21   0.12   0.00     0.00   0.00   0.21
   8   1    -0.30  -0.05   0.00     0.22  -0.12   0.00     0.00   0.00   0.40
   9   1    -0.06   0.14   0.00     0.21   0.12   0.00     0.00   0.00  -0.21
  10   6    -0.20  -0.14   0.00    -0.17   0.12   0.00     0.00   0.00   0.15
  11   6     0.20  -0.14   0.00    -0.17  -0.12   0.00     0.00   0.00  -0.15
  12   1     0.06   0.14   0.00     0.21  -0.12   0.00     0.00   0.00   0.21
  13   1     0.30  -0.04   0.00     0.22   0.12   0.00     0.00   0.00  -0.40
  14   6     0.19  -0.15   0.00    -0.29   0.00   0.00     0.00   0.00   0.16
  15   6    -0.19  -0.15   0.00    -0.29   0.00   0.00     0.00   0.00  -0.16
  16   1     0.06  -0.14   0.00    -0.21  -0.12   0.00     0.00   0.00  -0.21
  17   1     0.30   0.05   0.00    -0.22   0.12   0.00     0.00   0.00   0.40
  18   1    -0.30   0.04   0.00    -0.22  -0.12   0.00     0.00   0.00  -0.40
                    10                     11                     12
                     A                      A                      A
 Frequencies --   632.9753               677.7361               764.1132
 Red. masses --     6.2807                 1.1491                 1.4586
 Frc consts  --     1.4826                 0.3110                 0.5018
 IR Inten    --     3.8801                 0.0000               116.9884
 Atom AN      X      Y      Z        X      Y      Z        X      Y      Z
   1   6    -0.13  -0.03   0.00     0.00   0.00   0.04     0.00   0.00  -0.05
   2   6     0.04  -0.29   0.00     0.00   0.00   0.04     0.00   0.00  -0.06
   3   6     0.18   0.00   0.00     0.00   0.00   0.00     0.00   0.00   0.10
   4   6     0.18   0.00   0.00     0.00   0.00   0.00     0.00   0.00   0.10
   5   6     0.04   0.29   0.00     0.00   0.00   0.04     0.00   0.00  -0.06
   6   6    -0.13   0.03   0.00     0.00   0.00   0.04     0.00   0.00  -0.05
   7   1     0.05   0.29   0.00     0.00   0.00   0.31     0.00   0.00   0.19
   8   1     0.01   0.21   0.00     0.00   0.00  -0.38     0.00   0.00   0.45
   9   1     0.05  -0.29   0.00     0.00   0.00  -0.31     0.00   0.00   0.19
  10   6     0.04   0.29   0.00     0.00   0.00  -0.04     0.00   0.00  -0.06
  11   6     0.04  -0.29   0.00     0.00   0.00  -0.04     0.00   0.00  -0.06
  12   1     0.05   0.29   0.00     0.00   0.00  -0.31     0.00   0.00   0.19
  13   1     0.01  -0.21   0.00     0.00   0.00  -0.38     0.00   0.00   0.45
  14   6    -0.13  -0.03   0.00     0.00   0.00  -0.04     0.00   0.00  -0.05
  15   6    -0.13   0.03   0.00     0.00   0.00  -0.04     0.00   0.00  -0.05
  16   1     0.05  -0.29   0.00     0.00   0.00   0.31     0.00   0.00   0.19
  17   1     0.01   0.21   0.00     0.00   0.00   0.38     0.00   0.00   0.45
  18   1     0.01  -0.21   0.00     0.00   0.00   0.38     0.00   0.00   0.45
                    13                     14                     15
                     A                      A                      A
 Frequencies --   772.3260               783.8077               809.0304
 Red. masses --     2.3723                 4.3035                 1.3159
 Frc consts  --     0.8337                 1.5577                 0.5075
 IR Inten    --     0.0001                 0.0001                 0.0014
 Atom AN      X      Y      Z        X      Y      Z        X      Y      Z
   1   6     0.00   0.00   0.11    -0.02   0.02   0.00    -0.01   0.01   0.06
   2   6     0.00   0.00  -0.03    -0.11   0.23   0.00    -0.01   0.00   0.06
   3   6     0.00   0.00   0.19     0.00   0.13   0.00     0.00  -0.01   0.00
   4   6     0.00   0.00  -0.19     0.00  -0.13   0.00     0.00  -0.01   0.00
   5   6     0.00   0.00   0.03    -0.11  -0.23   0.00     0.01   0.00  -0.06
   6   6     0.00   0.00  -0.11    -0.02  -0.02   0.00     0.01   0.01  -0.06
   7   1     0.00   0.00  -0.46     0.27   0.24   0.00     0.00   0.00   0.43
   8   1     0.00   0.00  -0.07    -0.14  -0.17   0.00    -0.02  -0.01  -0.24
   9   1     0.00   0.00  -0.46    -0.27   0.24   0.00     0.00   0.00  -0.43
  10   6     0.00   0.00  -0.03     0.11   0.23   0.00     0.01   0.00  -0.06
  11   6     0.00   0.00   0.03     0.11  -0.23   0.00    -0.01   0.00   0.06
  12   1     0.00   0.00   0.46    -0.27  -0.24   0.00     0.00   0.00   0.43
  13   1     0.00   0.00   0.07    -0.14   0.17   0.00     0.02  -0.01   0.24
  14   6     0.00   0.00  -0.11     0.02  -0.02   0.00    -0.01   0.01   0.06
  15   6     0.00   0.00   0.11     0.02   0.02   0.00     0.01   0.01  -0.06
  16   1     0.00   0.00   0.46     0.27  -0.24   0.00     0.00   0.00  -0.43
  17   1     0.00   0.00   0.07     0.14   0.17   0.00    -0.02  -0.01  -0.24
  18   1     0.00   0.00  -0.07     0.14  -0.17   0.00     0.02  -0.01   0.24
                    16                     17                     18
                     A                      A                      A
 Frequencies --   809.0425               868.8330               936.6781
 Red. masses --     5.0395                 2.1087                 1.3327
 Frc consts  --     1.9435                 0.9379                 0.6889
 IR Inten    --     0.0914                 0.0007                 0.0001
 Atom AN      X      Y      Z        X      Y      Z        X      Y      Z
   1   6     0.24  -0.11   0.01     0.00   0.00   0.03     0.00   0.00   0.06
   2   6     0.12   0.05   0.01     0.00   0.00   0.10     0.00   0.00  -0.07
   3   6     0.00   0.10   0.00     0.00   0.00  -0.17     0.00   0.00   0.00
   4   6     0.00   0.10   0.00     0.00   0.00   0.17     0.00   0.00   0.00
   5   6    -0.12   0.05  -0.01     0.00   0.00  -0.10     0.00   0.00  -0.07
   6   6    -0.24  -0.11  -0.01     0.00   0.00  -0.03     0.00   0.00   0.06
   7   1     0.07   0.04   0.10     0.00   0.00  -0.34     0.00   0.00  -0.37
   8   1     0.36   0.10  -0.06     0.00   0.00  -0.33     0.00   0.00  -0.33
   9   1    -0.07   0.04  -0.10     0.00   0.00  -0.34     0.00   0.00   0.37
  10   6    -0.12   0.05  -0.01     0.00   0.00   0.10     0.00   0.00   0.07
  11   6     0.12   0.05   0.01     0.00   0.00  -0.10     0.00   0.00   0.07
  12   1     0.07   0.04   0.10     0.00   0.00   0.35     0.00   0.00   0.37
  13   1    -0.36   0.10   0.06     0.00   0.00   0.33     0.00   0.00  -0.33
  14   6     0.24  -0.11   0.01     0.00   0.00  -0.03     0.00   0.00  -0.06
  15   6    -0.24  -0.11  -0.01     0.00   0.00   0.03     0.00   0.00  -0.06
  16   1    -0.07   0.04  -0.10     0.00   0.00   0.35     0.00   0.00  -0.37
  17   1     0.36   0.10  -0.06     0.00   0.00   0.33     0.00   0.00   0.33
  18   1    -0.36   0.10   0.06     0.00   0.00  -0.33     0.00   0.00   0.33
                    19                     20                     21
                     A                      A                      A
 Frequencies --   949.9820               956.7279               966.2106
 Red. masses --     4.8815                 1.4306                 1.3218
 Frc consts  --     2.5956                 0.7715                 0.7270
 IR Inten    --     0.0009                 4.4610                 0.0001
 Atom AN      X      Y      Z        X      Y      Z        X      Y      Z
   1   6     0.14  -0.11   0.00     0.00   0.00  -0.05     0.00   0.00  -0.07
   2   6    -0.02   0.23   0.00     0.00   0.00   0.08     0.00   0.00   0.04
   3   6    -0.05   0.00   0.00     0.00   0.00  -0.04     0.00   0.00   0.00
   4   6     0.05   0.00   0.00     0.00   0.00  -0.04     0.00   0.00   0.00
   5   6     0.02   0.23   0.00     0.00   0.00   0.08     0.00   0.00  -0.04
   6   6    -0.14  -0.11   0.00     0.00   0.00  -0.05     0.00   0.00   0.07
   7   1    -0.25  -0.24   0.00     0.00   0.00  -0.41     0.00   0.00   0.28
   8   1     0.10  -0.18   0.00     0.00   0.00   0.27     0.00   0.00   0.41
   9   1    -0.25   0.24   0.00     0.00   0.00  -0.41     0.00   0.00  -0.28
  10   6    -0.02  -0.23   0.00     0.00   0.00   0.08     0.00   0.00  -0.04
  11   6     0.02  -0.23   0.00     0.00   0.00   0.08     0.00   0.00   0.04
  12   1     0.25   0.24   0.00     0.00   0.00  -0.41     0.00   0.00   0.28
  13   1    -0.10  -0.18   0.00     0.00   0.00   0.27     0.00   0.00  -0.41
  14   6    -0.14   0.11   0.00     0.00   0.00  -0.05     0.00   0.00  -0.07
  15   6     0.14   0.11   0.00     0.00   0.00  -0.05     0.00   0.00   0.07
  16   1     0.25  -0.24   0.00     0.00   0.00  -0.41     0.00   0.00  -0.28
  17   1    -0.10   0.18   0.00     0.00   0.00   0.27     0.00   0.00   0.41
  18   1     0.10   0.18   0.00     0.00   0.00   0.27     0.00   0.00  -0.41
                    22                     23                     24
                     A                      A                      A
 Frequencies --   974.3048              1034.1864              1043.5333
 Red. masses --     1.3318                 2.4582                 2.0853
 Frc consts  --     0.7449                 1.5491                 1.3379
 IR Inten    --     0.0004                 9.5005                 0.0005
 Atom AN      X      Y      Z        X      Y      Z        X      Y      Z
   1   6     0.00   0.00   0.07    -0.09   0.13   0.00     0.07  -0.12   0.00
   2   6     0.00   0.00  -0.05     0.03   0.07   0.00    -0.04  -0.06   0.00
   3   6     0.00   0.00   0.00     0.05   0.00   0.00     0.00   0.03   0.00
   4   6     0.00   0.00   0.00     0.05   0.00   0.00     0.00  -0.03   0.00
   5   6     0.00   0.00   0.05     0.03  -0.07   0.00    -0.04   0.06   0.00
   6   6     0.00   0.00  -0.07    -0.09  -0.13   0.00     0.07   0.12   0.00
   7   1     0.00   0.00   0.29     0.32  -0.07   0.00     0.39  -0.07   0.00
   8   1     0.00   0.00  -0.40     0.01   0.33   0.00    -0.01  -0.27   0.00
   9   1     0.00   0.00   0.29     0.32   0.07   0.00    -0.39  -0.07   0.00
  10   6     0.00   0.00  -0.05     0.03  -0.07   0.00     0.04  -0.06   0.00
  11   6     0.00   0.00   0.05     0.03   0.07   0.00     0.04   0.06   0.00
  12   1     0.00   0.00  -0.29     0.32  -0.07   0.00    -0.39   0.07   0.00
  13   1     0.00   0.00   0.40     0.01  -0.33   0.00    -0.01   0.27   0.00
  14   6     0.00   0.00  -0.07    -0.09   0.14   0.00    -0.07   0.12   0.00
  15   6     0.00   0.00   0.07    -0.09  -0.14   0.00    -0.07  -0.12   0.00
  16   1     0.00   0.00  -0.29     0.32   0.07   0.00     0.39   0.07   0.00
  17   1     0.00   0.00   0.40     0.01   0.33   0.00     0.01   0.27   0.00
  18   1     0.00   0.00  -0.40     0.01  -0.33   0.00     0.01  -0.27   0.00
                    25                     26                     27
                     A                      A                      A
 Frequencies --  1152.8572              1167.9892              1173.7813
 Red. masses --     1.6225                 1.1443                 1.0582
 Frc consts  --     1.2706                 0.9197                 0.8590
 IR Inten    --     6.5862                 1.3025                 0.0000
 Atom AN      X      Y      Z        X      Y      Z        X      Y      Z
   1   6     0.01  -0.04   0.00    -0.02  -0.03   0.00    -0.01  -0.02   0.00
   2   6     0.02   0.10   0.00     0.03  -0.01   0.00     0.00   0.00   0.00
   3   6     0.00  -0.08   0.00    -0.05   0.00   0.00     0.00  -0.04   0.00
   4   6     0.00  -0.08   0.00    -0.05   0.00   0.00     0.00   0.04   0.00
   5   6    -0.02   0.10   0.00     0.03   0.01   0.00     0.00   0.00   0.00
   6   6    -0.01  -0.04   0.00    -0.02   0.02   0.00    -0.01   0.02   0.00
   7   1    -0.27   0.10   0.00     0.38   0.01   0.00    -0.27   0.00   0.00
   8   1    -0.17  -0.35   0.00    -0.16  -0.28   0.00    -0.21  -0.36   0.00
   9   1     0.27   0.10   0.00     0.38  -0.01   0.00     0.27   0.00   0.00
  10   6    -0.02   0.10   0.00     0.03   0.01   0.00     0.00   0.00   0.00
  11   6     0.02   0.10   0.00     0.03  -0.01   0.00     0.00   0.00   0.00
  12   1    -0.27   0.10   0.00     0.38   0.01   0.00     0.27   0.00   0.00
  13   1     0.17  -0.35   0.00    -0.16   0.28   0.00    -0.21   0.37   0.00
  14   6     0.01  -0.04   0.00    -0.02  -0.02   0.00     0.01   0.02   0.00
  15   6    -0.01  -0.04   0.00    -0.02   0.02   0.00     0.01  -0.02   0.00
  16   1     0.27   0.10   0.00     0.38  -0.01   0.00    -0.27   0.00   0.00
  17   1    -0.17  -0.35   0.00    -0.16  -0.28   0.00     0.21   0.37   0.00
  18   1     0.17  -0.35   0.00    -0.16   0.28   0.00     0.21  -0.37   0.00
                    28                     29                     30
                     A                      A                      A
 Frequencies --  1174.9449              1227.4955              1262.1471
 Red. masses --     1.1669                 2.1180                 1.6453
 Frc consts  --     0.9491                 1.8802                 1.5443
 IR Inten    --     0.0000                 0.7857                 0.0004
 Atom AN      X      Y      Z        X      Y      Z        X      Y      Z
   1   6     0.03   0.02   0.00    -0.04   0.03   0.00    -0.04   0.03   0.00
   2   6    -0.04  -0.03   0.00    -0.03   0.04   0.00     0.03   0.01   0.00
   3   6    -0.03   0.00   0.00     0.20   0.00   0.00     0.15   0.00   0.00
   4   6     0.03   0.00   0.00     0.20   0.00   0.00    -0.15   0.00   0.00
   5   6     0.04  -0.03   0.00    -0.03  -0.04   0.00    -0.03   0.01   0.00
   6   6    -0.03   0.02   0.00    -0.04  -0.03   0.00     0.04   0.03   0.00
   7   1    -0.34   0.03   0.00    -0.18  -0.05   0.00    -0.41  -0.02   0.00
   8   1     0.19   0.30   0.00    -0.26  -0.35   0.00    -0.17  -0.20   0.00
   9   1    -0.34  -0.03   0.00    -0.18   0.05   0.00    -0.41   0.02   0.00
  10   6    -0.04   0.03   0.00    -0.03  -0.04   0.00     0.03  -0.01   0.00
  11   6     0.04   0.03   0.00    -0.03   0.04   0.00    -0.03  -0.01   0.00
  12   1     0.34  -0.03   0.00    -0.18  -0.05   0.00     0.41   0.02   0.00
  13   1    -0.19   0.30   0.00    -0.26   0.35   0.00     0.17  -0.20   0.00
  14   6    -0.03  -0.02   0.00    -0.04   0.03   0.00     0.04  -0.03   0.00
  15   6     0.03  -0.02   0.00    -0.04  -0.03   0.00    -0.04  -0.03   0.00
  16   1     0.34   0.03   0.00    -0.18   0.05   0.00     0.41  -0.02   0.00
  17   1    -0.19  -0.31   0.00    -0.26  -0.35   0.00     0.17   0.20   0.00
  18   1     0.19  -0.30   0.00    -0.26   0.35   0.00    -0.17   0.20   0.00
                    31                     32                     33
                     A                      A                      A
 Frequencies --  1283.4995              1407.9684              1438.2065
 Red. masses --     1.7971                 1.6545                 4.4155
 Frc consts  --     1.7443                 1.9324                 5.3812
 IR Inten    --     6.2429                 4.7697                 0.6003
 Atom AN      X      Y      Z        X      Y      Z        X      Y      Z
   1   6    -0.03  -0.01   0.00     0.02   0.06   0.00    -0.13  -0.09   0.00
   2   6     0.03  -0.06   0.00     0.08  -0.05   0.00     0.21   0.07   0.00
   3   6     0.00   0.16   0.00     0.00   0.06   0.00    -0.07   0.00   0.00
   4   6     0.00   0.16   0.00     0.00   0.06   0.00    -0.07   0.00   0.00
   5   6    -0.03  -0.06   0.00    -0.08  -0.05   0.00     0.21  -0.07   0.00
   6   6     0.03  -0.01   0.00    -0.02   0.06   0.00    -0.13   0.09   0.00
   7   1    -0.48  -0.06   0.00     0.25  -0.06   0.00    -0.40  -0.08   0.00
   8   1    -0.03  -0.02   0.00    -0.21  -0.36   0.00    -0.08   0.03   0.00
   9   1     0.48  -0.06   0.00    -0.25  -0.06   0.00    -0.40   0.08   0.00
  10   6    -0.03  -0.06   0.00    -0.08  -0.05   0.00     0.21  -0.07   0.00
  11   6     0.03  -0.06   0.00     0.08  -0.05   0.00     0.21   0.07   0.00
  12   1    -0.48  -0.06   0.00     0.25  -0.06   0.00    -0.40  -0.08   0.00
  13   1     0.03  -0.02   0.00     0.21  -0.36   0.00    -0.08  -0.03   0.00
  14   6    -0.03  -0.01   0.00     0.02   0.06   0.00    -0.13  -0.09   0.00
  15   6     0.03  -0.01   0.00    -0.02   0.06   0.00    -0.13   0.09   0.00
  16   1     0.48  -0.06   0.00    -0.25  -0.06   0.00    -0.40   0.08   0.00
  17   1    -0.03  -0.02   0.00    -0.21  -0.36   0.00    -0.08   0.03   0.00
  18   1     0.03  -0.02   0.00     0.21  -0.36   0.00    -0.08  -0.03   0.00
                    34                     35                     36
                     A                      A                      A
 Frequencies --  1449.5275              1486.8550              1494.3057
 Red. masses --     5.8013                 2.2593                 2.7044
 Frc consts  --     7.1817                 2.9428                 3.5579
 IR Inten    --     0.0000                 0.0000                 0.0001
 Atom AN      X      Y      Z        X      Y      Z        X      Y      Z
   1   6     0.09   0.16   0.00    -0.05   0.08   0.00     0.10   0.08   0.00
   2   6    -0.11   0.00   0.00     0.14  -0.02   0.00     0.04  -0.06   0.00
   3   6     0.00  -0.36   0.00     0.00   0.04   0.00    -0.18   0.00   0.00
   4   6     0.00   0.36   0.00     0.00  -0.04   0.00     0.18   0.00   0.00
   5   6    -0.11   0.00   0.00     0.14   0.02   0.00    -0.04  -0.06   0.00
   6   6     0.09  -0.16   0.00    -0.05  -0.08   0.00    -0.10   0.08   0.00
   7   1     0.35   0.00   0.00     0.37  -0.01   0.00    -0.17   0.08   0.00
   8   1    -0.07  -0.12   0.00    -0.22  -0.20   0.00    -0.15  -0.39   0.00
   9   1    -0.35   0.00   0.00    -0.37  -0.01   0.00    -0.17  -0.08   0.00
  10   6     0.11   0.00   0.00    -0.14  -0.02   0.00     0.04   0.06   0.00
  11   6     0.11   0.00   0.00    -0.14   0.02   0.00    -0.04   0.06   0.00
  12   1    -0.35   0.00   0.00    -0.37   0.01   0.00     0.17  -0.08   0.00
  13   1    -0.07   0.12   0.00    -0.22   0.20   0.00     0.15  -0.39   0.00
  14   6    -0.09  -0.16   0.00     0.05  -0.08   0.00    -0.10  -0.08   0.00
  15   6    -0.09   0.16   0.00     0.05   0.08   0.00     0.10  -0.08   0.00
  16   1     0.35   0.00   0.00     0.37   0.01   0.00     0.17   0.08   0.00
  17   1     0.07   0.12   0.00     0.22   0.20   0.00     0.15   0.39   0.00
  18   1     0.07  -0.12   0.00     0.22  -0.20   0.00    -0.15   0.39   0.00
                    37                     38                     39
                     A                      A                      A
 Frequencies --  1544.3176              1656.4083              1682.6251
 Red. masses --     3.6179                 7.6246                 5.7283
 Frc consts  --     5.0838                12.3254                 9.5554
 IR Inten    --     7.4469                 0.0006                 1.8542
 Atom AN      X      Y      Z        X      Y      Z        X      Y      Z
   1   6     0.04   0.19   0.00     0.13   0.22   0.00     0.20   0.11   0.00
   2   6     0.07  -0.08   0.00    -0.13  -0.14   0.00    -0.23  -0.07   0.00
   3   6    -0.14   0.00   0.00     0.00   0.31   0.00     0.00  -0.01   0.00
   4   6    -0.14   0.00   0.00     0.00  -0.31   0.00     0.00  -0.01   0.00
   5   6     0.07   0.08   0.00    -0.14   0.14   0.00     0.23  -0.07   0.00
   6   6     0.04  -0.19   0.00     0.13  -0.22   0.00    -0.20   0.11   0.00
   7   1    -0.28   0.09   0.00    -0.20  -0.15   0.00    -0.21  -0.09   0.00
   8   1    -0.21  -0.25   0.00    -0.08  -0.17   0.00    -0.01  -0.30   0.00
   9   1    -0.28  -0.09   0.00     0.20  -0.15   0.00     0.21  -0.09   0.00
  10   6     0.07   0.08   0.00     0.14  -0.14   0.00     0.23  -0.07   0.00
  11   6     0.07  -0.08   0.00     0.14   0.14   0.00    -0.23  -0.07   0.00
  12   1    -0.28   0.09   0.00     0.20   0.15   0.00    -0.21  -0.09   0.00
  13   1    -0.21   0.25   0.00    -0.08   0.17   0.00     0.01  -0.30   0.00
  14   6     0.04   0.19   0.00    -0.13  -0.22   0.00     0.20   0.11   0.00
  15   6     0.04  -0.19   0.00    -0.13   0.22   0.00    -0.20   0.11   0.00
  16   1    -0.28  -0.09   0.00    -0.20   0.15   0.00     0.21  -0.09   0.00
  17   1    -0.21  -0.25   0.00     0.08   0.17   0.00    -0.01  -0.30   0.00
  18   1    -0.21   0.25   0.00     0.08  -0.17   0.00     0.01  -0.30   0.00
                    40                     41                     42
                     A                      A                      A
 Frequencies --  1699.7305              3237.0441              3238.6677
 Red. masses --     6.5337                 1.0851                 1.0851
 Frc consts  --    11.1217                 6.6994                 6.7059
 IR Inten    --     0.0002                 0.0008                 3.9096
 Atom AN      X      Y      Z        X      Y      Z        X      Y      Z
   1   6    -0.17  -0.09   0.00     0.02  -0.01   0.00    -0.03   0.01   0.00
   2   6     0.25   0.04   0.00     0.00   0.03   0.00     0.00  -0.03   0.00
   3   6    -0.23   0.00   0.00     0.00   0.00   0.00     0.00   0.00   0.00
   4   6     0.23   0.00   0.00     0.00   0.00   0.00     0.00   0.00   0.00
   5   6    -0.25   0.04   0.00     0.00   0.03   0.00     0.00  -0.03   0.00
   6   6     0.17  -0.09   0.00    -0.02  -0.01   0.00     0.03   0.01   0.00
   7   1    -0.27  -0.06   0.00     0.00   0.39   0.00     0.00   0.36   0.00
   8   1    -0.01   0.22   0.00    -0.28   0.16   0.00     0.30  -0.17   0.00
   9   1    -0.27   0.06   0.00     0.00  -0.39   0.00     0.00   0.34   0.00
  10   6     0.25  -0.04   0.00     0.00  -0.03   0.00     0.00  -0.03   0.00
  11   6    -0.25  -0.04   0.00     0.00  -0.03   0.00     0.00  -0.03   0.00
  12   1     0.27   0.06   0.00     0.00  -0.38   0.00     0.00   0.36   0.00
  13   1     0.01   0.22   0.00     0.27   0.15   0.00    -0.31  -0.17   0.00
  14   6     0.17   0.09   0.00    -0.02   0.01   0.00    -0.03   0.01   0.00
  15   6    -0.17   0.09   0.00     0.02   0.01   0.00     0.03   0.01   0.00
  16   1     0.27  -0.06   0.00     0.00   0.38   0.00     0.00   0.35   0.00
  17   1     0.01  -0.22   0.00     0.27  -0.15   0.00     0.30  -0.17   0.00
  18   1    -0.01  -0.22   0.00    -0.27  -0.16   0.00    -0.31  -0.18   0.00
                    43                     44                     45
                     A                      A                      A
 Frequencies --  3241.4763              3244.6741              3255.5174
 Red. masses --     1.0879                 1.0873                 1.0944
 Frc consts  --     6.7351                 6.7445                 6.8340
 IR Inten    --     1.5176                 0.0005                 0.0043
 Atom AN      X      Y      Z        X      Y      Z        X      Y      Z
   1   6     0.01  -0.01   0.00    -0.02   0.01   0.00     0.03  -0.01   0.00
   2   6     0.00   0.04   0.00     0.00  -0.04   0.00     0.00  -0.03   0.00
   3   6     0.00   0.00   0.00     0.00   0.00   0.00     0.00   0.00   0.00
   4   6     0.00   0.00   0.00     0.00   0.00   0.00     0.00   0.00   0.00
   5   6     0.00  -0.04   0.00     0.00   0.04   0.00     0.00  -0.03   0.00
   6   6     0.01   0.01   0.00    -0.02  -0.01   0.00    -0.03  -0.01   0.00
   7   1     0.00   0.44   0.00     0.00   0.45   0.00     0.00  -0.32   0.00
   8   1    -0.18   0.10   0.00     0.20  -0.11   0.00    -0.34   0.19   0.00
   9   1     0.00  -0.46   0.00     0.00   0.44   0.00     0.00   0.31   0.00
  10   6     0.00  -0.04   0.00     0.00  -0.04   0.00     0.00   0.03   0.00
  11   6     0.00   0.04   0.00     0.00   0.04   0.00     0.00   0.03   0.00
  12   1     0.00   0.46   0.00     0.00  -0.44   0.00     0.00   0.31   0.00
  13   1    -0.17  -0.10   0.00     0.20   0.11   0.00     0.33   0.19   0.00
  14   6     0.01  -0.01   0.00     0.02  -0.01   0.00    -0.03   0.01   0.00
  15   6     0.01   0.01   0.00     0.02   0.01   0.00     0.03   0.01   0.00
  16   1     0.00  -0.46   0.00     0.00  -0.45   0.00     0.00  -0.32   0.00
  17   1    -0.18   0.10   0.00    -0.20   0.12   0.00     0.34  -0.19   0.00
  18   1    -0.16  -0.09   0.00    -0.20  -0.11   0.00    -0.34  -0.19   0.00
                    46                     47                     48
                     A                      A                      A
 Frequencies --  3256.9607              3267.1697              3268.2927
 Red. masses --     1.0944                 1.0978                 1.0974
 Frc consts  --     6.8399                 6.9041                 6.9064
 IR Inten    --    55.9663                39.4275                 0.0006
 Atom AN      X      Y      Z        X      Y      Z        X      Y      Z
   1   6    -0.03   0.01   0.00     0.04  -0.02   0.00    -0.03   0.02   0.00
   2   6     0.00   0.03   0.00     0.00  -0.02   0.00     0.00   0.02   0.00
   3   6     0.00   0.00   0.00     0.00   0.00   0.00     0.00   0.00   0.00
   4   6     0.00   0.00   0.00     0.00   0.00   0.00     0.00   0.00   0.00
   5   6     0.00   0.03   0.00     0.00   0.02   0.00     0.00  -0.02   0.00
   6   6     0.03   0.01   0.00     0.04   0.02   0.00    -0.03  -0.02   0.00
   7   1     0.00  -0.35   0.00     0.00  -0.20   0.00     0.00  -0.23   0.00
   8   1     0.31  -0.17   0.00    -0.40   0.22   0.00     0.39  -0.22   0.00
   9   1     0.00  -0.36   0.00     0.00   0.20   0.00     0.00  -0.23   0.00
  10   6     0.00   0.03   0.00     0.00   0.02   0.00     0.00   0.02   0.00
  11   6     0.00   0.03   0.00     0.00  -0.02   0.00     0.00  -0.02   0.00
  12   1     0.00  -0.35   0.00     0.00  -0.20   0.00     0.00   0.23   0.00
  13   1    -0.31  -0.17   0.00    -0.40  -0.23   0.00     0.39   0.22   0.00
  14   6    -0.03   0.01   0.00     0.04  -0.02   0.00     0.03  -0.02   0.00
  15   6     0.03   0.01   0.00     0.04   0.02   0.00     0.03   0.02   0.00
  16   1     0.00  -0.35   0.00     0.00   0.20   0.00     0.00   0.23   0.00
  17   1     0.30  -0.17   0.00    -0.40   0.23   0.00    -0.38   0.22   0.00
  18   1    -0.31  -0.17   0.00    -0.40  -0.23   0.00    -0.38  -0.22   0.00

 -------------------
 - Thermochemistry -
 -------------------
 Temperature   298.150 Kelvin.  Pressure   1.00000 Atm.
 Atom  1 has atomic number  6 and mass  12.00000
 Atom  2 has atomic number  6 and mass  12.00000
 Atom  3 has atomic number  6 and mass  12.00000
 Atom  4 has atomic number  6 and mass  12.00000
 Atom  5 has atomic number  6 and mass  12.00000
 Atom  6 has atomic number  6 and mass  12.00000
 Atom  7 has atomic number  1 and mass   1.00783
 Atom  8 has atomic number  1 and mass   1.00783
 Atom  9 has atomic number  1 and mass   1.00783
 Atom 10 has atomic number  6 and mass  12.00000
 Atom 11 has atomic number  6 and mass  12.00000
 Atom 12 has atomic number  1 and mass   1.00783
 Atom 13 has atomic number  1 and mass   1.00783
 Atom 14 has atomic number  6 and mass  12.00000
 Atom 15 has atomic number  6 and mass  12.00000
 Atom 16 has atomic number  1 and mass   1.00783
 Atom 17 has atomic number  1 and mass   1.00783
 Atom 18 has atomic number  1 and mass   1.00783
 Molecular mass:   128.06260 amu.
 Principal axes and moments of inertia in atomic units:
                           1         2         3
     EIGENVALUES --   570.765171449.190822019.95599
           X            1.00000   0.00000   0.00000
           Y            0.00000   1.00000   0.00000
           Z            0.00000   0.00000   1.00000
 This molecule is an asymmetric top.
 Rotational symmetry number  1.
 Warning -- assumption of classical behavior for rotation
           may cause significant error
 Rotational temperatures (Kelvin)      0.15175     0.05977     0.04288
 Rotational constants (GHZ):           3.16197     1.24534     0.89346
 Zero-point vibrational energy     388086.7 (Joules/Mol)
                                   92.75495 (Kcal/Mol)
 Warning -- explicit consideration of   8 degrees of freedom as
           vibrations may cause significant error
 Vibrational temperatures:    169.09   241.16   504.39   533.29   657.60
          (Kelvin)            669.94   747.70   749.80   893.78   910.71
                              975.11  1099.39  1111.20  1127.72  1164.01
                             1164.03  1250.06  1347.67  1366.81  1376.52
                             1390.16  1401.81  1487.96  1501.41  1658.70
                             1680.47  1688.81  1690.48  1766.09  1815.95
                             1846.67  2025.75  2069.26  2085.54  2139.25
                             2149.97  2221.93  2383.20  2420.92  2445.53
                             4657.38  4659.71  4663.76  4668.36  4683.96
                             4686.03  4700.72  4702.34
 
 Zero-point correction=                           0.147814 (Hartree/Particle)
 Thermal correction to Energy=                    0.154913
 Thermal correction to Enthalpy=                  0.155857
 Thermal correction to Gibbs Free Energy=         0.116211
 Sum of electronic and zero-point Energies=           -385.839582
 Sum of electronic and thermal Energies=              -385.832483
 Sum of electronic and thermal Enthalpies=            -385.831539
 Sum of electronic and thermal Free Energies=         -385.871185
 
                     E (Thermal)             CV                S
                      KCal/Mol        Cal/Mol-Kelvin    Cal/Mol-Kelvin
 Total                   97.209             29.545             83.441
 Electronic               0.000              0.000              0.000
 Translational            0.889              2.981             40.455
 Rotational               0.889              2.981             28.904
 Vibrational             95.432             23.583             14.082
 Vibration  1             0.608              1.935              3.141
 Vibration  2             0.624              1.882              2.462
 Vibration  3             0.727              1.574              1.164
 Vibration  4             0.743              1.532              1.077
 Vibration  5             0.815              1.345              0.775
 Vibration  6             0.823              1.326              0.750
 Vibration  7             0.875              1.206              0.611
 Vibration  8             0.876              1.203              0.607
                       Q            Log10(Q)             Ln(Q)
 Total Bot       0.352036D-53        -53.453413       -123.081031
 Total V=0       0.343840D+15         14.536356         33.471197
 Vib (Bot)       0.133564D-66        -66.874310       -153.983790
 Vib (Bot)  1    0.173984D+01          0.240509          0.553793
 Vib (Bot)  2    0.120325D+01          0.080356          0.185027
 Vib (Bot)  3    0.526090D+00         -0.278940         -0.642284
 Vib (Bot)  4    0.490964D+00         -0.308950         -0.711384
 Vib (Bot)  5    0.373044D+00         -0.428240         -0.986060
 Vib (Bot)  6    0.363575D+00         -0.439406         -1.011769
 Vib (Bot)  7    0.310693D+00         -0.507668         -1.168949
 Vib (Bot)  8    0.309411D+00         -0.509465         -1.173086
 Vib (V=0)       0.130454D+02          1.115459          2.568438
 Vib (V=0)  1    0.231026D+01          0.363661          0.837360
 Vib (V=0)  2    0.180300D+01          0.255996          0.589453
 Vib (V=0)  3    0.122579D+01          0.088416          0.203585
 Vib (V=0)  4    0.120075D+01          0.079451          0.182944
 Vib (V=0)  5    0.112383D+01          0.050700          0.116741
 Vib (V=0)  6    0.111821D+01          0.048524          0.111732
 Vib (V=0)  7    0.108867D+01          0.036896          0.084955
 Vib (V=0)  8    0.108799D+01          0.036626          0.084334
 Electronic      0.100000D+01          0.000000          0.000000
 Translational   0.569624D+08          7.755589         17.857903
 Rotational      0.462710D+06          5.665309         13.044856
 ***** Axes restored to original set *****
 -------------------------------------------------------------------
 Center     Atomic                   Forces (Hartrees/Bohr)
 Number     Number              X              Y              Z
 -------------------------------------------------------------------
    1          6          -0.010125200    0.003369536    0.000002352
    2          6           0.009369258    0.003340220   -0.000002708
    3          6           0.006240944   -0.010631982   -0.000000904
    4          6          -0.006217048    0.010645434    0.000002374
    5          6           0.007497789    0.006536973   -0.000000933
    6          6          -0.002015594   -0.010479277   -0.000000642
    7          1           0.002818746   -0.005703961   -0.000001616
    8          1          -0.003319461   -0.005338370   -0.000000285
    9          1           0.003596606   -0.005248927   -0.000000979
   10          6          -0.007519899   -0.006549497    0.000000302
   11          6          -0.009392218   -0.003353143    0.000000648
   12          1          -0.002817502    0.005704988    0.000001420
   13          1          -0.006280174   -0.000282351    0.000000566
   14          6           0.010146917   -0.003382311   -0.000003470
   15          6           0.002013992    0.010503338    0.000002479
   16          1          -0.003596346    0.005249647    0.000001682
   17          1           0.003318761    0.005338390    0.000000617
   18          1           0.006280429    0.000281292   -0.000000904
 -------------------------------------------------------------------
 Cartesian Forces:  Max     0.010645434 RMS     0.005230434

 GradGradGradGradGradGradGradGradGradGradGradGradGradGradGradGradGradGrad
 Berny optimization.
 Internal  Forces:  Max     0.014556039 RMS     0.003885409
 Search for a local minimum.
 Step number   1 out of a maximum of   2
 All quantities printed in internal units (Hartrees-Bohrs-Radians)
 Second derivative matrix not updated -- analytic derivatives used.
     Eigenvalues ---    0.01449   0.01452   0.01678   0.01747   0.01900
     Eigenvalues ---    0.02056   0.02242   0.02387   0.02396   0.02412
     Eigenvalues ---    0.02495   0.02756   0.02821   0.02870   0.02873
     Eigenvalues ---    0.10982   0.11124   0.11509   0.11587   0.12184
     Eigenvalues ---    0.12411   0.12417   0.12626   0.18443   0.18543
     Eigenvalues ---    0.19491   0.20102   0.20401   0.20702   0.26997
     Eigenvalues ---    0.29452   0.35663   0.37082   0.37188   0.37199
     Eigenvalues ---    0.37325   0.37431   0.37503   0.37534   0.37680
     Eigenvalues ---    0.39382   0.39521   0.40659   0.44416   0.52133
     Eigenvalues ---    0.52216   0.53483   0.542631000.000001000.00000
     Eigenvalues --- 1000.000001000.000001000.000001000.000001000.00000
     Eigenvalues --- 1000.000001000.000001000.000001000.000001000.00000
     Eigenvalues --- 1000.000001000.000001000.000001000.000001000.00000
     Eigenvalues --- 1000.000001000.000001000.000001000.000001000.00000
     Eigenvalues --- 1000.000001000.000001000.000001000.000001000.00000
     Eigenvalues --- 1000.000001000.000001000.000001000.000001000.00000
     Eigenvalues --- 1000.000001000.000001000.000001000.000001000.00000
     Eigenvalues --- 1000.000001000.000001000.000001000.000001000.00000
     Eigenvalues --- 1000.000001000.000001000.00000
 Angle between quadratic step and forces=  15.10 degrees.
 Linear search not attempted -- first point.
 Iteration  1 RMS(Cart)=  0.01260388 RMS(Int)=  0.00000529
 Iteration  2 RMS(Cart)=  0.00000817 RMS(Int)=  0.00000121
 Iteration  3 RMS(Cart)=  0.00000000 RMS(Int)=  0.00000121
 Variable       Old X    -DE/DX   Delta X   Delta X   Delta X     New X
                                 (Linear)    (Quad)   (Total)
    R1        2.56690   0.01454   0.00000   0.02872   0.02872   2.59562
    R2        2.67674   0.00217   0.00000  -0.00188  -0.00188   2.67486
    R3        2.03222   0.00628   0.00000   0.01633   0.01633   2.04855
    R4        2.68415   0.00253   0.00000  -0.00050  -0.00050   2.68365
    R5        2.03364   0.00635   0.00000   0.01666   0.01666   2.05030
    R6        2.66331   0.01419   0.00000   0.03897   0.03897   2.70229
    R7        2.68421   0.00251   0.00000  -0.00056  -0.00056   2.68366
[...]
 8951,0.0391998,-0.0538335,-0.0000215,-0.0833859,0.0574587,0.0005039,-0
 .0007996,0.000493,-0.1415602,0.0684143,-0.088848,-0.0006489,-0.0502497
 ,-0.051654,0.000165,-0.0001374,0.0001343,-0.1451645,0.0202248,0.041586
 2,-0.0001413,0.0908982,-0.0652508,0.000158,-0.0000224,-0.000022,0.1319
 135,0.0219703,-0.0787639,-0.000003,-0.0839583,-0.069748,0.0003074,0.00
 02664,-0.0002336,0.1399915,0.0115366,0.09608,0.0002296,0.0464014,-0.05
 75475,-0.0002024,-0.0003212,0.0001616,0.1321607,0.0365229,-0.0521245,0
 .0021301,-0.0823547,0.0570001,-0.0000829,-0.0000812,0.0000312,-0.14212
 13,-0.0052757,-0.0580505,-0.0005973,-0.0288738,0.1017356,0.0000479,-0.
 0016421,0.0010378,-0.1408693,0.0199608,0.0416941,0.0000315,0.0914332,-
 0.0654426,-0.0001574,0.0002954,-0.0002566,0.1316429,-0.1175516,-0.0050
 685,0.0004411,-0.000464,0.0690651,-0.0001757,0.0000065,0.0000032,0.140
 2673,-0.0817547,0.0327871,-0.0010367,-0.003416,0.0979325,-0.0004698,0.
 000158,-0.000048,-0.1453895,0.0693558,-0.0891521,-0.0011661,-0.0507701
 ,-0.0516839,0.0001442,-0.00013,0.0001366,-0.1451724,0.0115048,0.096435
 9,0.0006179,0.0464423,-0.0580809,-0.0008089,0.0003381,-0.0002777,0.131
 6121,0.0217526,-0.0785283,0.0002715,-0.0840726,-0.0695211,0.0005417,0.
 0001211,-0.0000928,0.1401565,-0.1172902,-0.0053615,0.000135,-0.0009168
 ,0.0693432,0.0001852,0.0000461,-0.0000343,0.140229\Polar=151.8846937,1
 9.8160767,129.6228212,0.0191682,-0.0397149,61.2258533\PG=C01 [X(C10H8)
 ]\NImag=0\\0.75792641,0.06036275,0.69304445,-0.00006730,0.00007489,0.1
 2700763,-0.42293841,-0.03029308,0.00003630,0.77220350,0.02685487,-0.12
 576500,-0.00001236,-0.05906211,0.68276043,0.00004793,-0.00000566,-0.05
 823451,-0.00008970,0.00008851,0.12891401,-0.04652819,-0.02297525,0.000
 00439,-0.14017203,-0.07702294,0.00000022,0.68233729,-0.05709468,0.0256
 0430,0.00001281,-0.04777684,-0.25121029,-0.00002162,0.00666059,0.67495
 591,-0.00000193,0.00000556,0.00699885,0.00000512,-0.00001913,-0.066513
 28,-0.00007345,0.00007714,0.15903159,-0.04246648,0.02630828,0.00000742
 ,0.05305179,0.01290959,-0.00000454,-0.17967128,0.06643112,0.00002721,0
 .68240108,0.00800920,-0.00231509,0.00000117,-0.00168783,-0.04053702,-0
 .00000860,0.06647726,-0.25427849,-0.00003355,0.00659395,0.67491229,0.0
 0000215,-0.00000051,-0.00659412,-0.00000475,0.00000640,0.00536018,0.00
 004366,-0.00005866,-0.07120958,-0.00007798,0.00005772,0.15901672,0.057
 13619,-0.01762840,-0.00000883,-0.04158956,-0.02056227,0.00000186,-0.01
 335541,0.05016084,0.00000949,-0.27788405,0.00027136,0.00002898,0.65377
 881,0.02270415,-0.05955865,-0.00001306,-0.02725985,-0.01476193,0.00000
 204,0.03557074,0.02585354,-0.00000297,0.02951159,-0.11351205,-0.000005
 32,0.00738462,0.80118231,-0.00000094,-0.00000873,0.00826198,-0.0000013
 0,-0.00000208,-0.00319524,0.00000348,0.00000303,0.00536003,0.00003418,
 -0.00000146,-0.06651007,-0.00006642,0.00009950,0.12891332,-0.16724908,
 0.10052419,0.00002677,-0.02944451,0.03095654,0.00000982,0.00271628,0.0
 0095150,-0.00000019,-0.02583952,-0.03458755,-0.00000220,-0.19839373,-0
 .15628880,-0.00000643,0.76010389,0.04002011,-0.24610554,-0.00002722,0.
 07127024,0.02705039,-0.00000951,-0.01731355,-0.04750811,-0.00000215,-0
 .06872694,0.00489534,-0.00001348,-0.09914166,-0.35029178,-0.00002471,0
 .05913478,0.69085986,0.00002012,-0.00004012,-0.06312176,0.00001327,0.0
 0000090,0.00826112,-0.00000170,-0.00000661,-0.00659350,-0.00000728,0.0
 0000336,0.00699761,0.00000244,-0.00002448,-0.05823346,-0.00007224,0.00
 007816,0.12700666,0.00014023,-0.00038142,0.00000165,0.00150878,0.00186
 295,-0.00000168,-0.01168777,0.02831685,0.00000701,-0.00528662,-0.00197
 701,-0.00000960,-0.00018042,0.00169726,0.00000376,0.00006513,0.0000397
 1,0.00000006,0.13628813,0.00049551,0.00002235,-0.00000286,-0.00147329,
 0.00079032,0.00000290,-0.00164414,0.00258835,-0.00000118,-0.00067628,0
 .00143369,0.00001606,-0.00044470,-0.00016191,-0.00000539,-0.00003217,0
 .00039005,-0.00000013,-0.13694955,0.29186703,-0.00000040,0.00000015,-0
 .00012446,0.00000031,-0.00000123,-0.00291873,-0.00000025,-0.00000273,0
 .00291290,0.00000252,0.00000085,0.00543386,-0.00000004,-0.00000070,0.0
 0001795,0.00000041,0.00000061,-0.00010462,-0.00003437,0.00005642,0.022
 51403,-0.13140944,-0.12753891,-0.00000689,-0.01182165,-0.03022904,-0.0
 0000225,-0.00544234,0.00172731,0.00000212,-0.00082238,0.00039386,0.000
 00031,-0.00115101,0.00326732,0.00000116,0.01174347,0.01565058,0.000001
 12,-0.00002980,0.00005345,0.00000002,0.13698031,-0.12868796,-0.2783613
 9,-0.00001966,0.00225547,0.00352837,-0.00000009,0.00087359,0.00173896,
 -0.00000173,0.00081612,0.00040503,0.00000326,0.00416206,-0.00304407,-0
 .00000257,-0.01609248,-0.01831637,-0.00000072,-0.00001422,0.00000346,-
 0.00000034,0.13772115,0.29323152,-0.00000866,-0.00001915,-0.03463791,0
 .00000573,0.00000150,0.00426670,-0.00000017,-0.00000198,0.00914653,0.0
 0000169,0.00000033,-0.00065107,0.00000151,-0.00000204,0.00527843,-0.00
 000237,-0.00000748,0.00261209,-0.00000068,0.00000116,0.00016129,0.0000
 0608,0.00002218,0.02278579,-0.01187971,0.03007767,0.00000607,-0.131255
 93,0.12717680,0.00003205,0.01054604,-0.01410524,-0.00000364,-0.0013138
 7,-0.00290729,0.00000537,-0.00057473,-0.00064421,-0.00000161,-0.005375
 03,-0.00165737,0.00000162,-0.00009175,0.00045927,-0.00000018,0.0010485
 4,-0.00033393,-0.00000079,0.13771924,-0.00244953,0.00363281,0.00000048
 ,0.12812994,-0.27534049,-0.00005263,0.01584406,-0.01968133,-0.00000495
 ,-0.00419292,-0.00254327,-0.00000431,-0.00083977,0.00014982,0.00000134
 ,-0.00043765,0.00184753,-0.00000103,-0.00123424,0.00034094,0.00000040,
 0.00034260,0.00089605,0.00000085,-0.13775551,0.29044579,0.00000227,-0.
 00000420,0.00458878,0.00003128,-0.00005417,-0.03425125,-0.00000108,0.0
 0000174,0.00291270,0.00000134,0.00000184,0.00543497,-0.00000014,-0.000
 00036,-0.00100063,0.00000153,0.00000252,0.00855529,0.00000147,-0.00000
 256,0.00024490,-0.00000080,0.00000053,-0.00529992,-0.00003612,0.000058
 06,0.02251377,0.02236825,-0.01127886,-0.00000065,-0.04504875,-0.025339
 21,0.00000216,-0.27783466,0.00029530,0.00002490,-0.01334939,0.05016917
 ,0.00001885,-0.01066715,-0.00409677,0.00000084,-0.00185782,0.01755786,
 0.00000511,-0.13186607,0.12751084,0.00002970,0.00026248,-0.00003453,-0
 .00000338,0.00112910,0.00206924,-0.00000071,0.65372564,0.00703039,-0.0
 1027231,-0.00000168,-0.04600527,-0.00500390,0.00000360,0.02951752,-0.1
 1352545,-0.00001028,0.03557035,0.02583707,-0.00001011,-0.00409341,-0.0
 0861468,0.00000123,-0.00108878,0.00755275,0.00000163,0.12847700,-0.274
 71866,-0.00005096,-0.00142946,-0.00009866,-0.00000055,-0.00126845,0.00
 118770,0.00000213,0.00742936,0.80123641,-0.00000113,-0.00000079,0.0059
 0158,0.00000013,0.00000101,0.00370051,0.00003154,-0.00000603,-0.066517
 77,0.00000838,-0.00000277,0.00536114,0.00000148,-0.00000199,0.00575240
 ,0.00000009,-0.00000048,-0.00063484,0.00003182,-0.00005201,-0.03425165
 ,-0.00000018,-0.00000023,0.00026382,-0.00000089,0.00000046,-0.00291966
 ,-0.00006900,0.00009825,0.12891300,0.01231110,-0.00903793,-0.00000849,
 -0.01258057,-0.00303100,0.00000533,0.05301631,-0.00166801,-0.00000743,
 -0.14013720,-0.04772894,0.00002407,-0.04503825,-0.04600500,-0.00000860
 ,-0.00426242,0.02197116,0.00000315,-0.00065398,-0.00060013,-0.00000038
 ,0.00039739,-0.00021557,0.00000303,0.00036798,0.00138635,-0.00000335,-
 0.04161350,-0.02725516,0.00000083,0.77225277,0.00957581,-0.00661892,-0
 .00000278,-0.00300528,-0.00668750,-0.00000104,0.01288966,-0.04054910,-
 0.00000945,-0.07697196,-0.25118328,-0.00001309,-0.02533214,-0.00501339
 ,0.00000044,0.00366894,0.01635969,0.00000126,-0.00079230,0.00022971,0.
 00000028,0.00009220,-0.00008108,0.00000042,-0.00075434,-0.00070789,-0.
 00000059,-0.02056232,-0.01475436,0.00000049,-0.05908709,0.68271743,0.0
 0000468,-0.00000197,-0.00063320,-0.00000448,-0.00000583,0.00575237,-0.
 00001133,0.00000629,0.00535834,0.00000053,-0.00001156,-0.06651202,0.00
 000211,0.00000261,0.00369986,0.00000053,0.00001463,0.00590306,0.000006
 86,-0.00001072,-0.00100130,-0.00000042,-0.00000113,-0.00097152,-0.0000
 0295,0.00000173,0.00001807,0.00000318,0.00000745,-0.00319505,-0.000107
 82,0.00008662,0.12891287,-0.00077291,-0.00301907,0.00000226,-0.0006631
 2,-0.00078541,-0.00000122,-0.00526827,-0.00197350,0.00000156,-0.011707
 06,0.02832024,-0.00000151,-0.13188443,0.12848531,0.00003427,0.01170611
 ,-0.01568739,-0.00000302,-0.00052241,0.00000214,0.00000033,0.00037350,
 -0.00076981,-0.00000090,0.00007577,0.00010783,0.00000105,-0.00017183,0
 .00169205,0.00000043,0.00151619,0.00185212,0.00000510,0.13629684,-0.00
 424574,-0.00274971,-0.00000316,-0.00058847,0.00022208,0.00000155,-0.00
 070058,0.00142598,-0.00000091,-0.00161631,0.00258149,0.00000885,0.1275
 3295,-0.27471986,-0.00005533,0.01684520,-0.01995410,-0.00000623,0.0000
 0113,-0.00000734,-0.00000023,0.00081581,-0.00104334,0.00000079,0.00011
 641,-0.00005158,-0.00000124,-0.00045492,-0.00015505,-0.00000010,-0.001
 48366,0.00080722,-0.00000573,-0.13695741,0.29186848,-0.00000114,-0.000
 00075,0.00855424,0.00000294,-0.00000167,-0.00099997,-0.00000056,-0.000
 00106,0.00543331,0.00000327,-0.00000368,0.00291467,0.00003136,-0.00005
 255,-0.03425209,0.00000271,-0.00000421,0.00458827,-0.00000066,0.000001
 25,0.00016420,0.00000017,-0.00000038,0.00018703,-0.00000001,0.00000009
 ,-0.00112210,-0.00000320,-0.00000105,0.00001843,0.00000252,0.00000048,
 -0.00292139,-0.00003583,0.00005888,0.02251458,-0.01130640,-0.00315832,
 0.00000342,0.00057305,0.00319775,-0.00000007,0.00063126,0.00000036,-0.
 00000024,0.00112152,-0.00281158,-0.00000562,-0.01208238,0.00240410,0.0
 0000502,-0.35252200,-0.00461740,0.00004097,0.00000903,0.00002097,-0.00
 000007,0.00076291,0.00028888,-0.00000180,-0.00068333,-0.00017854,0.000
 00118,-0.00000673,0.00002157,-0.00000006,-0.00064177,0.00047255,0.0000
 0588,0.00093683,-0.00027125,-0.00000221,0.37336560,0.02858576,0.004733
 15,-0.00000368,0.00229693,-0.00477470,-0.00000166,-0.00041747,-0.00104
 618,0.00000024,-0.00195894,-0.00483612,-0.00000202,-0.03008240,0.00379
 232,0.00000368,-0.00347022,-0.05725402,-0.00000322,-0.00008849,0.00001
 817,0.00000012,-0.00066997,0.00097760,0.00000096,0.00140932,0.00001551
 ,-0.00000024,0.00032351,0.00033318,0.00000021,-0.00092228,0.00080022,-
 0.00000027,0.00040506,0.00100854,0.00000121,0.00508183,0.05685023,0.00
 000582,0.00000084,0.00261241,0.00000123,-0.00000226,0.00527929,-0.0000
 0080,0.00000032,-0.00065280,0.00000102,-0.00000142,0.00914682,-0.00000
 257,-0.00000051,0.00426616,0.00004088,-0.00000260,-0.03463692,0.000000
 18,-0.00000029,0.00004208,-0.00000054,0.00000042,-0.00274939,0.0000002
 1,0.00000008,0.00018634,-0.00000046,0.00000036,-0.00096957,-0.00000025
 ,0.,0.00026358,-0.00000061,0.00000087,-0.00529958,-0.00004442,0.000004
 50,0.02278501,-0.01476253,0.00871614,-0.00000306,0.01234409,0.00955491
 ,0.00000335,-0.04248115,0.00801263,0.00000624,-0.04651487,-0.05708053,
 0.00001787,0.02235927,0.00702171,-0.00000883,-0.00053432,-0.01947601,-
 0.00000465,-0.00077548,-0.00424169,0.00000052,-0.00023093,0.00012995,0
 .00000401,0.00030935,-0.00009002,-0.00000360,0.05710044,0.02270116,-0.
 00000309,-0.42299081,0.02684940,0.00003314,0.00013638,0.00050256,0.000
 00400,-0.00012239,-0.00043509,-0.00000035,0.75800273,0.00871146,-0.005
 71895,-0.00000242,-0.00903821,-0.00661714,0.00000025,0.02630632,-0.002
 31919,-0.00000220,-0.02297371,0.02559641,0.00000300,-0.01127519,-0.010
 27146,-0.00000059,-0.00036824,0.01058139,0.00000107,-0.00302139,-0.002
 74547,-0.00000084,0.00023079,-0.00005051,0.00000066,-0.00017222,0.0001
 3985,0.00000034,-0.01762415,-0.05955838,-0.00000791,-0.03028604,-0.125
 75514,-0.00000567,-0.00038342,0.00002452,0.00000070,-0.00036704,-0.000
 24980,0.00000023,0.06039828,0.69298546,0.00000310,-0.00000190,-0.00031
 990,-0.00000343,-0.00000036,-0.00063493,0.00001115,-0.00000240,-0.0065
 9333,0.00000264,0.00000828,0.00699703,-0.00000399,-0.00000283,0.005901
 19,-0.00000005,0.00000224,0.00032423,-0.00000026,0.00000047,0.00855590
 ,0.00000014,0.00000037,0.00023801,0.00000040,-0.00000029,-0.00010440,-
 0.00000806,-0.00001387,0.00826123,0.00004374,-0.00001307,-0.05822764,-
 0.00000072,0.00000063,-0.00012406,-0.00000058,0.00000008,-0.00071647,-
 0.00007259,0.00007781,0.12700498,-0.00054436,-0.00036720,0.00000103,-0
 .00427450,0.00368527,0.00000033,-0.02581783,-0.03460431,0.00000196,0.0
 0270207,0.00093769,-0.00001853,-0.00185393,-0.00107978,0.00000473,-0.0
 0044891,0.00066886,-0.00000084,0.01169967,0.01685560,0.00000276,-0.000
 56004,-0.00011183,0.00000049,0.00010461,-0.00036356,0.00000222,-0.1983
 9137,-0.15632509,-0.00000418,-0.02943118,0.03096024,0.00001836,0.00006
 220,-0.00003056,0.00000037,0.00005748,0.00006592,0.00000046,-0.1672190
 8,0.10048985,0.00002797,0.76008112,-0.01946922,0.01058759,0.00000400,0
 .02197180,0.01635845,-0.00000137,-0.06870269,0.00490828,0.00000898,-0.
 01734144,-0.04748417,-0.00000330,0.01753140,0.00755638,-0.00000110,0.0
 0068568,-0.02002376,-0.00000313,-0.01568467,-0.01995672,-0.00000202,-0
 .00018805,0.00019460,0.00000007,0.00052010,0.00006007,-0.00000017,-0.0
 9917725,-0.35034819,-0.00003009,0.07128003,0.02702289,-0.00000682,0.00
 004509,0.00038264,0.00000013,-0.00003014,-0.00034367,-0.00000015,0.039
 98644,-0.24605812,-0.00003445,0.05920791,0.69086784,-0.00000213,0.0000
 0133,0.00032476,0.00000326,0.00000249,0.00590055,-0.00000472,0.0000042
 6,0.00699882,-0.00000487,-0.00000674,-0.00659476,0.00000291,0.00000179
 ,-0.00063441,-0.00000042,-0.00000224,-0.00031986,-0.00000306,-0.000006
 29,0.00458912,-0.00000009,0.00000032,-0.00071678,0.00000006,0.00000002
 ,-0.00012397,0.00000542,-0.00002294,-0.05822846,0.00001428,-0.00000104
 ,0.00826215,0.00000030,-0.00000038,-0.00010483,0.00000062,-0.00000027,
 0.00023793,0.00001887,-0.00004285,-0.06312607,-0.00007581,0.00007856,0
 .12700523,0.00031825,-0.00017527,0.00000404,0.00035524,-0.00073821,-0.
 00000263,-0.00130049,-0.00291779,0.00000047,0.01053930,-0.01411811,-0.
 00001718,0.00113460,-0.00126559,0.00000475,0.00009396,0.00052342,0.000
 00126,0.00007377,0.00011847,-0.00000005,-0.00001339,0.00003665,-0.0000
 0253,-0.00012736,-0.00022177,0.00000244,-0.00055376,-0.00064325,-0.000
 00006,-0.13126632,0.12718305,0.00004267,-0.00009332,0.00046085,-0.0000
 0248,0.00001808,0.00002737,0.00000016,-0.01189126,0.03007350,0.0000056
 2,-0.00538514,-0.00165923,0.00000265,0.13772958,-0.00010352,0.00014360
 ,-0.00000681,0.00141022,-0.00073609,0.00000396,-0.00422198,-0.00252666
 ,-0.00000099,0.01586135,-0.01966196,0.00002011,0.00206468,0.00118115,-
 0.00000926,-0.00034950,0.00005778,-0.00000178,0.00011150,-0.00005604,-
 0.00000020,-0.00007514,0.00003400,0.00000405,-0.00022351,-0.00039372,-
 0.00000437,-0.00087558,0.00015130,0.00000007,0.12814119,-0.27534186,-0
 .00007218,-0.00123229,0.00033976,0.00000434,-0.00004709,-0.00003419,-0
 .00000032,-0.00243307,0.00364077,0.00000209,-0.00041917,0.00184727,-0.
 00000276,-0.13776751,0.29045574,-0.00000175,0.00000068,-0.00010538,0.0
 0000323,-0.00000140,0.00001878,-0.00000095,-0.00000223,0.00543261,0.00
 000251,-0.00000220,0.00291386,-0.00000017,0.00000057,-0.00291951,0.000
 00088,-0.00000300,-0.00012455,-0.00000118,0.00000184,-0.00112167,0.000
 00006,-0.00000016,0.00004275,0.00000026,-0.00000021,0.00016382,-0.0000
 0304,-0.00000071,-0.00100026,0.00003450,-0.00005078,-0.03425292,-0.000
 00111,0.00000125,0.00024574,-0.00000147,0.00000025,0.00016118,0.000006
 23,-0.00000349,0.00458935,0.00000161,-0.00000081,0.00855552,-0.0000375
 5,0.00006136,0.02251436,-0.00022871,0.00022989,0.00000159,0.00039158,0
 .00009742,-0.00000100,-0.00081685,0.00039234,0.00000011,-0.00544597,0.
 00172492,-0.00000259,0.00026312,-0.00142812,0.00000165,-0.00056217,-0.
 00018618,0.00000041,0.00037355,0.00081558,0.00000007,-0.00000228,-0.00
 001631,-0.00000096,-0.00001276,-0.00007586,0.00000081,-0.00114392,0.00
 326747,0.00000142,-0.01182550,-0.03022909,0.00000181,-0.00002929,0.000
 05251,-0.00000093,-0.00008366,-0.00014770,0.00000002,-0.13141836,-0.12
 754285,-0.00000640,0.01174005,0.01565104,0.00000156,0.00105135,0.00033
 846,-0.00000185,0.13698644,0.00013740,-0.00005244,0.00000197,-0.000218
 99,-0.00007510,-0.00000080,0.00081877,0.00040253,-0.00000030,0.0008734
 6,0.00173340,-0.00000551,-0.00003230,-0.00009919,0.00000194,-0.0001178
 4,0.00020007,0.00000095,-0.00076991,-0.00104403,-0.00000033,-0.0000173
 4,-0.00001541,-0.00000151,0.00003396,0.00003874,0.00000084,0.00417090,
 -0.00304171,-0.00000188,0.00224914,0.00353072,0.00000440,-0.00001467,0
 .00000434,-0.00000148,-0.00000450,0.00000068,0.,-0.12870048,-0.2783570
 6,-0.00001951,-0.01609447,-0.01831975,-0.00000028,-0.00032743,0.000886
 59,-0.00000053,0.13772589,0.29322942,-0.00000037,0.00000013,0.00023774
 ,0.00000050,0.00000010,-0.00096938,0.00000027,-0.00000060,-0.00065258,
 0.00000201,-0.00000180,0.00914710,0.00000003,0.00000018,0.00026367,0.0
 0000014,-0.00000093,-0.00071673,-0.00000060,0.00000038,0.00018647,0.00
 000002,0.00000002,0.00006631,0.00000017,-0.00000009,0.00004209,0.00000
 118,-0.00000205,0.00527822,0.00000362,0.00000397,0.00426680,-0.0000003
 4,0.00000042,0.00016139,-0.00000044,0.00000008,-0.00002221,-0.00000477
 ,-0.00001890,-0.03463723,-0.00000410,-0.00000558,0.00261192,-0.0000017
 4,0.00000237,-0.00530014,0.00000493,0.00002166,0.02278522,-0.00011419,
 -0.00036520,0.00000029,-0.00063900,0.00047408,0.00000003,0.00112908,-0
 .00280846,0.00000069,0.00062292,0.00000118,-0.00000130,-0.00001692,0.0
 0002133,0.00000031,0.00006068,-0.00003024,0.00000020,0.00093601,-0.000
 26989,-0.00000089,-0.00008534,-0.00000723,-0.00000030,0.00001386,-0.00
 004065,0.00000019,-0.01208093,0.00240200,0.00000246,0.00057979,0.00319
 056,0.00000213,0.00000882,0.00002148,-0.00000030,-0.00002710,-0.000003
 12,0.00000001,-0.01131109,-0.00315774,0.00000132,-0.35252084,-0.004626
 80,0.00004116,-0.00068308,-0.00017904,-0.00000021,0.00076337,0.0002884
 0,-0.00000050,0.37336397,-0.00043677,-0.00025025,0.00000038,-0.0009253
 7,0.00079912,0.00000018,-0.00195992,-0.00483306,-0.00000214,-0.0004173
 0,-0.00104325,0.00000089,0.00032433,0.00033344,0.00000006,0.00006640,-
 0.00034117,0.00000012,0.00040681,0.00100608,0.00000076,-0.00014715,0.0
 0000123,-0.00000028,0.00002854,-0.00003654,-0.00000011,-0.03008259,0.0
 0379293,0.00000379,0.00229293,-0.00477536,-0.00000186,-0.00008688,0.00
 001594,-0.00000027,-0.00000215,0.00000908,-0.00000005,0.02858371,0.004
 73282,-0.00000329,-0.00347537,-0.05725163,-0.00000300,0.00141085,0.000
 01255,-0.00000044,-0.00066940,0.00097821,0.00000063,0.00508933,0.05684
 986,-0.00000032,0.00000019,-0.00071672,0.00000036,-0.00000042,0.000263
 77,0.00000030,-0.00000165,0.00914716,-0.00000005,0.00000022,-0.0006523
 3,-0.00000002,0.00000011,-0.00096957,0.00000013,-0.00000015,0.00023791
 ,-0.00000072,0.00000092,-0.00530026,-0.00000002,-0.00000009,-0.0000221
 6,-0.00000001,0.,0.00016118,-0.00000283,-0.00000046,0.00426692,0.00000
 125,-0.00000212,0.00527795,-0.00000005,0.00000007,0.00004216,-0.000000
 09,0.00000003,0.00006613,0.00000672,0.00000081,0.00261211,0.00004116,-
 0.00000275,-0.03463685,0.00000015,0.00000031,0.00018645,-0.00000066,0.
 00000036,-0.00274865,-0.00004530,0.00000462,0.02278480\\0.01012520,-0.
 00336954,-0.00000235,-0.00936926,-0.00334022,0.00000271,-0.00624094,0.
 01063198,0.00000090,0.00621705,-0.01064543,-0.00000237,-0.00749779,-0.
 00653697,0.00000093,0.00201559,0.01047928,0.00000064,-0.00281875,0.005
 70396,0.00000162,0.00331946,0.00533837,0.00000028,-0.00359661,0.005248
 93,0.00000098,0.00751990,0.00654950,-0.00000030,0.00939222,0.00335314,
 -0.00000065,0.00281750,-0.00570499,-0.00000142,0.00628017,0.00028235,-
 0.00000057,-0.01014692,0.00338231,0.00000347,-0.00201399,-0.01050334,-
 0.00000248,0.00359635,-0.00524965,-0.00000168,-0.00331876,-0.00533839,
 -0.00000062,-0.00628043,-0.00028129,0.00000090\\\@


 The lyf so short, the craft so long to lerne.
                             -- Chaucer
 Job cpu time:  0 days  1 hours 50 minutes 39.3 seconds.
 File lengths (MBytes):  RWF=    151 Int=      0 D2E=      0 Chk=      9 Scr=      1
 Normal termination of Gaussian 03 at Sun Aug 31 03:40:22 2014.
